/*--------------------------------*- C++ -*----------------------------------*\
| =========                 |                                                 |
| \\      /  F ield         | OpenFOAM: The Open Source CFD Toolbox           |
|  \\    /   O peration     | Version:  4.x                                   |
|   \\  /    A nd           | Web:      www.OpenFOAM.org                      |
|    \\/     M anipulation  |                                                 |
\*---------------------------------------------------------------------------*/
FoamFile
{
    version     2.0;
    format      ascii;
    class       volScalarField;
    location    "6000";
    object      p;
}
// * * * * * * * * * * * * * * * * * * * * * * * * * * * * * * * * * * * * * //

dimensions      [0 2 -2 0 0 0 0];

internalField   nonuniform List<scalar> 
6552
(
2.38294e-12
2.72827e-10
3.56494e-10
2.6208e-10
-1.0103e-11
-4.51256e-10
-1.04598e-09
-1.7832e-09
-2.64342e-09
-3.60178e-09
-4.63812e-09
-5.72184e-09
-6.82688e-09
-7.92417e-09
-8.98646e-09
-9.98544e-09
-1.08957e-08
-1.1693e-08
-1.23581e-08
-1.2873e-08
-1.32227e-08
-1.34006e-08
-1.3399e-08
-1.32207e-08
-1.28681e-08
-1.23493e-08
-1.16835e-08
-1.08809e-08
-9.96871e-09
-8.96708e-09
-7.90132e-09
-6.80123e-09
-5.69321e-09
-4.60608e-09
-3.57068e-09
-2.60749e-09
-1.75114e-09
-1.01516e-09
-4.2345e-10
-8.46135e-12
2.6293e-10
3.49072e-10
2.57142e-10
-1.23681e-11
-4.50743e-10
-1.04278e-09
-1.77741e-09
-2.63516e-09
-3.59133e-09
-4.62569e-09
-5.70777e-09
-6.81152e-09
-7.90796e-09
-8.96977e-09
-9.96872e-09
-1.08793e-08
-1.16775e-08
-1.23439e-08
-1.28603e-08
-1.32119e-08
-1.3392e-08
-1.33929e-08
-1.32172e-08
-1.28671e-08
-1.23511e-08
-1.1688e-08
-1.08879e-08
-9.97809e-09
-8.97854e-09
-7.9146e-09
-6.81596e-09
-5.70902e-09
-4.62259e-09
-3.58739e-09
-2.62411e-09
-1.76708e-09
-1.03012e-09
-4.37157e-10
-1.8645e-11
2.54849e-10
3.43642e-10
2.54191e-10
-1.26389e-11
-4.48401e-10
-1.03782e-09
-1.77003e-09
-2.62552e-09
-3.57969e-09
-4.61236e-09
-5.69309e-09
-6.79587e-09
-7.89174e-09
-8.95342e-09
-9.95263e-09
-1.0864e-08
-1.16632e-08
-1.2331e-08
-1.28492e-08
-1.3203e-08
-1.33854e-08
-1.33887e-08
-1.32156e-08
-1.28682e-08
-1.23548e-08
-1.16942e-08
-1.08965e-08
-9.98877e-09
-8.99106e-09
-7.92864e-09
-6.83116e-09
-5.72499e-09
-4.63892e-09
-3.60364e-09
-2.63989e-09
-1.78195e-09
-1.04375e-09
-4.49119e-10
-2.55929e-11
2.49218e-10
3.40073e-10
2.52455e-10
-1.23584e-11
-4.46038e-10
-1.03347e-09
-1.76385e-09
-2.61764e-09
-3.57036e-09
-4.60178e-09
-5.68156e-09
-6.78366e-09
-7.8792e-09
-8.94087e-09
-9.94039e-09
-1.08523e-08
-1.16525e-08
-1.23216e-08
-1.28412e-08
-1.31966e-08
-1.33808e-08
-1.33861e-08
-1.3215e-08
-1.28696e-08
-1.23582e-08
-1.16995e-08
-1.09036e-08
-9.99746e-09
-9.00108e-09
-7.93975e-09
-6.84306e-09
-5.73737e-09
-4.65149e-09
-3.61602e-09
-2.6519e-09
-1.79311e-09
-1.05396e-09
-4.58016e-10
-3.41903e-11
2.41363e-10
3.33715e-10
2.47445e-10
-1.5711e-11
-4.47671e-10
-1.03327e-09
-1.76189e-09
-2.61397e-09
-3.56508e-09
-4.59502e-09
-5.67353e-09
-6.77454e-09
-7.86925e-09
-8.93035e-09
-9.92956e-09
-1.08415e-08
-1.16419e-08
-1.23115e-08
-1.28319e-08
-1.31884e-08
-1.33738e-08
-1.33806e-08
-1.3211e-08
-1.28673e-08
-1.23576e-08
-1.17006e-08
-1.09064e-08
-1.0002e-08
-9.00712e-09
-7.94716e-09
-6.85165e-09
-5.74692e-09
-4.66177e-09
-3.62671e-09
-2.66281e-09
-1.80384e-09
-1.0644e-09
-4.67607e-10
-4.93851e-11
2.25647e-10
3.18938e-10
2.33748e-10
-2.78061e-11
-4.57706e-10
-1.0411e-09
-1.76741e-09
-2.61702e-09
-3.56567e-09
-4.59306e-09
-5.66911e-09
-6.76774e-09
-7.8603e-09
-8.91945e-09
-9.91698e-09
-1.08275e-08
-1.1627e-08
-1.2296e-08
-1.28162e-08
-1.31728e-08
-1.33588e-08
-1.33666e-08
-1.31983e-08
-1.28562e-08
-1.23485e-08
-1.16937e-08
-1.0902e-08
-1e-08
-9.00773e-09
-7.95031e-09
-6.85721e-09
-5.75478e-09
-4.67175e-09
-3.63849e-09
-2.67627e-09
-1.81841e-09
-1.07996e-09
-4.83399e-10
-7.72887e-11
1.96319e-10
2.90237e-10
2.06223e-10
-5.33423e-11
-4.80614e-10
-1.06086e-09
-1.78362e-09
-2.62932e-09
-3.57377e-09
-4.59675e-09
-5.66835e-09
-6.76251e-09
-7.85073e-09
-8.90579e-09
-9.89955e-09
-1.08068e-08
-1.16034e-08
-1.22702e-08
-1.27888e-08
-1.31446e-08
-1.33305e-08
-1.33389e-08
-1.31719e-08
-1.28318e-08
-1.23267e-08
-1.16752e-08
-1.08872e-08
-9.98935e-09
-9.00145e-09
-7.94857e-09
-6.86006e-09
-5.76214e-09
-4.68345e-09
-3.65417e-09
-2.69564e-09
-1.84082e-09
-1.10502e-09
-5.09993e-10
-1.22041e-10
1.48639e-10
2.42768e-10
1.60086e-10
-9.69692e-11
-5.20487e-10
-1.09625e-09
-1.81374e-09
-2.65347e-09
-3.59145e-09
-4.60745e-09
-5.67182e-09
-6.75864e-09
-7.83964e-09
-8.8877e-09
-9.87491e-09
-1.07762e-08
-1.15677e-08
-1.22302e-08
-1.27456e-08
-1.30993e-08
-1.32841e-08
-1.32928e-08
-1.31271e-08
-1.27895e-08
-1.22883e-08
-1.16415e-08
-1.08592e-08
-9.96762e-09
-8.98659e-09
-7.94099e-09
-6.85991e-09
-5.76947e-09
-4.69811e-09
-3.67571e-09
-2.72373e-09
-1.87452e-09
-1.14363e-09
-5.52135e-10
-1.87615e-10
7.90502e-11
1.72883e-10
9.16171e-11
-1.62383e-10
-5.81235e-10
-1.15095e-09
-1.86113e-09
-2.69243e-09
-3.62107e-09
-4.62696e-09
-5.68079e-09
-6.7568e-09
-7.82701e-09
-8.86456e-09
-9.84182e-09
-1.07339e-08
-1.15174e-08
-1.21731e-08
-1.26831e-08
-1.30331e-08
-1.32158e-08
-1.32243e-08
-1.30602e-08
-1.27258e-08
-1.22296e-08
-1.15892e-08
-1.08148e-08
-9.93214e-09
-8.96101e-09
-7.92599e-09
-6.85585e-09
-5.77649e-09
-4.71603e-09
-3.70405e-09
-2.76186e-09
-1.92135e-09
-1.19802e-09
-6.12446e-10
-2.68584e-10
-7.33215e-12
8.52199e-11
4.81868e-12
-2.46229e-10
-6.59835e-10
-1.22266e-09
-1.92425e-09
-2.74543e-09
-3.66278e-09
-4.65621e-09
-5.69688e-09
-6.75929e-09
-7.81583e-09
-8.83992e-09
-9.80431e-09
-1.06845e-08
-1.14573e-08
-1.21038e-08
-1.26064e-08
-1.29509e-08
-1.31303e-08
-1.31377e-08
-1.29746e-08
-1.26437e-08
-1.21531e-08
-1.15202e-08
-1.07553e-08
-9.88348e-09
-8.92443e-09
-7.9025e-09
-6.84598e-09
-5.78056e-09
-4.734e-09
-3.73537e-09
-2.806e-09
-1.97695e-09
-1.26376e-09
-6.86702e-10
-3.64239e-10
-1.09708e-10
-1.97906e-11
-1.00296e-10
-3.48923e-10
-7.57538e-10
-1.31307e-09
-2.00515e-09
-2.81485e-09
-3.71905e-09
-4.69785e-09
-5.72289e-09
-6.76898e-09
-7.80889e-09
-8.81648e-09
-9.76492e-09
-1.06301e-08
-1.13893e-08
-1.20239e-08
-1.25166e-08
-1.28536e-08
-1.30278e-08
-1.30329e-08
-1.28702e-08
-1.25424e-08
-1.20576e-08
-1.14329e-08
-1.06785e-08
-9.81918e-09
-8.87426e-09
-7.86778e-09
-6.82758e-09
-5.77898e-09
-4.74929e-09
-3.76712e-09
-2.8535e-09
-2.0389e-09
-1.3386e-09
-7.72816e-10
-4.80979e-10
-2.35263e-10
-1.49743e-10
-2.31552e-10
-4.78261e-10
-8.81507e-10
-1.42887e-09
-2.10988e-09
-2.90588e-09
-3.79424e-09
-4.75512e-09
-5.76083e-09
-6.7866e-09
-7.8057e-09
-8.79248e-09
-9.72069e-09
-1.05667e-08
-1.13084e-08
-1.19275e-08
-1.24071e-08
-1.27339e-08
-1.2901e-08
-1.29022e-08
-1.27391e-08
-1.24144e-08
-1.19361e-08
-1.13208e-08
-1.0579e-08
-9.73463e-09
-8.80684e-09
-7.81931e-09
-6.79922e-09
-5.77153e-09
-4.76301e-09
-3.80157e-09
-2.90811e-09
-2.11203e-09
-1.42849e-09
-8.77704e-10
-6.21774e-10
-3.86742e-10
-3.07291e-10
-3.9144e-10
-6.36567e-10
-1.03427e-09
-1.57236e-09
-2.24043e-09
-3.02017e-09
-3.88944e-09
-4.8287e-09
-5.81096e-09
-6.81197e-09
-7.80559e-09
-8.76684e-09
-9.67014e-09
-1.04925e-08
-1.12124e-08
-1.18122e-08
-1.22754e-08
-1.25892e-08
-1.2747e-08
-1.27431e-08
-1.25789e-08
-1.22573e-08
-1.17863e-08
-1.1182e-08
-1.04549e-08
-9.62839e-09
-8.72122e-09
-7.75658e-09
-6.76093e-09
-5.75873e-09
-4.77604e-09
-3.84006e-09
-2.9712e-09
-2.19804e-09
-1.53525e-09
-1.00316e-09
-7.88434e-10
-5.66223e-10
-4.94637e-10
-5.82249e-10
-8.26057e-10
-1.21748e-09
-1.74494e-09
-2.39792e-09
-3.15853e-09
-4.00527e-09
-4.91884e-09
-5.87314e-09
-6.84455e-09
-7.80771e-09
-8.73835e-09
-9.61175e-09
-1.04057e-08
-1.10994e-08
-1.16758e-08
-1.21191e-08
-1.24171e-08
-1.25636e-08
-1.25531e-08
-1.23873e-08
-1.2069e-08
-1.16065e-08
-1.1015e-08
-1.03054e-08
-9.49992e-09
-8.61714e-09
-7.67967e-09
-6.71307e-09
-5.74124e-09
-4.78945e-09
-3.88392e-09
-3.04473e-09
-2.29911e-09
-1.66142e-09
-1.15203e-09
-9.83676e-10
-7.76146e-10
-7.13901e-10
-8.05644e-10
-1.04799e-09
-1.43239e-09
-1.94744e-09
-2.58273e-09
-3.32089e-09
-4.14106e-09
-5.02445e-09
-5.9459e-09
-6.88256e-09
-7.80993e-09
-8.70466e-09
-9.54299e-09
-1.03036e-08
-1.09666e-08
-1.15156e-08
-1.19357e-08
-1.22153e-08
-1.23485e-08
-1.23305e-08
-1.21628e-08
-1.18486e-08
-1.13958e-08
-1.08195e-08
-1.01302e-08
-9.34944e-09
-8.49533e-09
-7.58973e-09
-6.65728e-09
-5.72108e-09
-4.80545e-09
-3.93565e-09
-3.13099e-09
-2.41762e-09
-1.80919e-09
-1.32617e-09
-1.20941e-09
-1.0182e-09
-9.66438e-10
-1.06263e-09
-1.30289e-09
-1.67857e-09
-2.17885e-09
-2.79332e-09
-3.50518e-09
-4.29446e-09
-5.14278e-09
-6.02614e-09
-6.92262e-09
-7.80876e-09
-8.6622e-09
-9.46033e-09
-1.01828e-08
-1.08109e-08
-1.13288e-08
-1.17227e-08
-1.19817e-08
-1.21002e-08
-1.20741e-08
-1.19048e-08
-1.15958e-08
-1.1155e-08
-1.05966e-08
-9.93119e-09
-9.17935e-09
-8.35852e-09
-7.48984e-09
-6.59679e-09
-5.70164e-09
-4.82763e-09
-3.99878e-09
-3.23377e-09
-2.55719e-09
-1.98212e-09
-1.52887e-09
-1.46725e-09
-1.29338e-09
-1.25245e-09
-1.3525e-09
-1.58924e-09
-1.95415e-09
-2.43665e-09
-3.02658e-09
-3.70781e-09
-4.46128e-09
-5.26936e-09
-6.10926e-09
-6.96011e-09
-7.7996e-09
-8.60659e-09
-9.35968e-09
-1.00397e-08
-1.0629e-08
-1.11128e-08
-1.14781e-08
-1.17149e-08
-1.18182e-08
-1.17842e-08
-1.16145e-08
-1.13127e-08
-1.08863e-08
-1.03493e-08
-9.71176e-09
-8.9934e-09
-8.21088e-09
-7.38441e-09
-6.53623e-09
-5.68757e-09
-4.86042e-09
-4.07754e-09
-3.35663e-09
-2.72087e-09
-2.18251e-09
-1.76154e-09
-1.75714e-09
-1.60083e-09
-1.57029e-09
-1.67292e-09
-1.90394e-09
-2.25494e-09
-2.71599e-09
-3.27713e-09
-3.92302e-09
-4.6357e-09
-5.39829e-09
-6.18941e-09
-6.98939e-09
-7.77724e-09
-8.5331e-09
-9.23696e-09
-9.87093e-09
-1.04185e-08
-1.0866e-08
-1.12013e-08
-1.14154e-08
-1.15037e-08
-1.14629e-08
-1.12946e-08
-1.10026e-08
-1.05943e-08
-1.00826e-08
-9.47757e-09
-8.79756e-09
-8.05847e-09
-7.27946e-09
-6.48137e-09
-5.68429e-09
-4.90887e-09
-4.17639e-09
-3.5036e-09
-2.91194e-09
-2.41293e-09
-2.0259e-09
-2.07748e-09
-1.93807e-09
-1.91644e-09
-2.01927e-09
-2.24153e-09
-2.57513e-09
-3.01058e-09
-3.53834e-09
-4.14403e-09
-4.81082e-09
-5.52289e-09
-6.26031e-09
-7.00474e-09
-7.73663e-09
-8.43754e-09
-9.08892e-09
-9.67422e-09
-1.01782e-08
-1.05882e-08
-1.08934e-08
-1.10853e-08
-1.11599e-08
-1.11143e-08
-1.09504e-08
-1.06716e-08
-1.02852e-08
-9.8032e-09
-9.23525e-09
-8.59853e-09
-7.90793e-09
-7.18135e-09
-6.43819e-09
-5.6972e-09
-4.97754e-09
-4.29899e-09
-3.6771e-09
-3.13171e-09
-2.67341e-09
-2.32061e-09
-2.42432e-09
-2.30014e-09
-2.28512e-09
-2.38516e-09
-2.59505e-09
-2.90706e-09
-3.31248e-09
-3.80224e-09
-4.36304e-09
-4.97938e-09
-5.63646e-09
-6.31601e-09
-7.00111e-09
-7.67377e-09
-8.31703e-09
-8.91389e-09
-9.44917e-09
-9.90895e-09
-1.02818e-08
-1.05576e-08
-1.07289e-08
-1.07921e-08
-1.07447e-08
-1.05885e-08
-1.03269e-08
-9.96663e-09
-9.51892e-09
-8.9928e-09
-8.40403e-09
-7.76641e-09
-7.09656e-09
-6.41225e-09
-5.73084e-09
-5.06995e-09
-4.44768e-09
-3.87847e-09
-3.3803e-09
-2.96294e-09
-2.6436e-09
-2.79179e-09
-2.68044e-09
-2.66892e-09
-2.76246e-09
-2.95598e-09
-3.24232e-09
-3.61342e-09
-4.06093e-09
-4.57269e-09
-5.13461e-09
-5.73316e-09
-6.35173e-09
-6.97493e-09
-7.58635e-09
-8.17063e-09
-8.71229e-09
-9.19759e-09
-9.61388e-09
-9.9508e-09
-1.01993e-08
-1.03527e-08
-1.04076e-08
-1.03619e-08
-1.02173e-08
-9.97704e-09
-9.64717e-09
-9.238e-09
-8.7578e-09
-8.22097e-09
-7.64006e-09
-7.03025e-09
-6.40766e-09
-5.78812e-09
-5.18761e-09
-4.62262e-09
-4.10626e-09
-3.65486e-09
-3.27726e-09
-2.98923e-09
-3.17215e-09
-3.07047e-09
-3.05897e-09
-3.14227e-09
-3.3155e-09
-3.57214e-09
-3.9051e-09
-4.30678e-09
-4.76628e-09
-5.27101e-09
-5.80872e-09
-6.36456e-09
-6.92469e-09
-7.47436e-09
-7.99974e-09
-8.48695e-09
-8.92362e-09
-9.29841e-09
-9.60193e-09
-9.8261e-09
-9.96482e-09
-1.0015e-08
-9.97492e-09
-9.84586e-09
-9.63082e-09
-9.33527e-09
-8.9683e-09
-8.53748e-09
-8.05558e-09
-7.53391e-09
-6.98614e-09
-6.42667e-09
-5.86981e-09
-5.32991e-09
-4.82175e-09
-4.35726e-09
-3.95093e-09
-3.61087e-09
-3.35123e-09
-3.55665e-09
-3.46134e-09
-3.44622e-09
-3.51551e-09
-3.66489e-09
-3.88864e-09
-4.18051e-09
-4.53383e-09
-4.93905e-09
-5.38505e-09
-5.86102e-09
-6.35382e-09
-6.8512e-09
-7.34003e-09
-7.80804e-09
-8.24286e-09
-8.63346e-09
-8.96967e-09
-9.2431e-09
-9.44648e-09
-9.57429e-09
-9.62365e-09
-9.59288e-09
-9.48304e-09
-9.29668e-09
-9.03846e-09
-8.71641e-09
-8.33712e-09
-7.91188e-09
-7.45063e-09
-6.96547e-09
-6.46912e-09
-5.9743e-09
-5.49373e-09
-5.0406e-09
-4.62553e-09
-4.26145e-09
-3.95566e-09
-3.72065e-09
-3.9362e-09
-3.84379e-09
-3.82174e-09
-3.87397e-09
-3.99674e-09
-4.18519e-09
-4.43413e-09
-4.73784e-09
-5.08812e-09
-5.47541e-09
-5.89025e-09
-6.32122e-09
-6.75761e-09
-7.1879e-09
-7.6013e-09
-7.98687e-09
-8.33485e-09
-8.6362e-09
-8.88335e-09
-9.06977e-09
-9.1904e-09
-9.24249e-09
-9.22436e-09
-9.13668e-09
-8.9815e-09
-8.76272e-09
-8.48709e-09
-8.16031e-09
-7.79204e-09
-7.39088e-09
-6.96739e-09
-6.53263e-09
-6.09777e-09
-5.67402e-09
-5.27294e-09
-4.90403e-09
-4.57862e-09
-4.30337e-09
-4.0891e-09
-4.30225e-09
-4.2098e-09
-4.17805e-09
-4.21082e-09
-4.30519e-09
-4.45724e-09
-4.66273e-09
-4.91697e-09
-5.21311e-09
-5.54305e-09
-5.89876e-09
-6.27044e-09
-6.64887e-09
-7.02404e-09
-7.38655e-09
-7.72682e-09
-8.03622e-09
-8.30672e-09
-8.53154e-09
-8.70473e-09
-8.82163e-09
-8.8795e-09
-8.87659e-09
-8.81313e-09
-8.69059e-09
-8.51198e-09
-8.28293e-09
-8.00807e-09
-7.69563e-09
-7.35282e-09
-6.9887e-09
-6.61274e-09
-6.23462e-09
-5.86405e-09
-5.51116e-09
-5.18432e-09
-4.89349e-09
-4.64469e-09
-4.4472e-09
-4.64748e-09
-4.55249e-09
-4.50914e-09
-4.52122e-09
-4.58661e-09
-4.70232e-09
-4.86514e-09
-5.0714e-09
-5.31554e-09
-5.5909e-09
-5.89073e-09
-6.20682e-09
-6.5313e-09
-6.8556e-09
-7.17159e-09
-7.47092e-09
-7.74602e-09
-7.98974e-09
-8.19596e-09
-8.35923e-09
-8.47518e-09
-8.54105e-09
-8.55493e-09
-8.51657e-09
-8.42684e-09
-8.28795e-09
-8.10429e-09
-7.87957e-09
-7.62048e-09
-7.333e-09
-7.02475e-09
-6.70369e-09
-6.37814e-09
-6.05645e-09
-5.74739e-09
-5.45834e-09
-5.19795e-09
-4.97175e-09
-4.78764e-09
-4.96627e-09
-4.86718e-09
-4.81127e-09
-4.80241e-09
-4.83938e-09
-4.92011e-09
-5.04231e-09
-5.20331e-09
-5.39874e-09
-5.62328e-09
-5.87145e-09
-6.13641e-09
-6.41162e-09
-6.68977e-09
-6.96391e-09
-7.22678e-09
-7.47174e-09
-7.69242e-09
-7.88329e-09
-8.0393e-09
-8.1563e-09
-8.23146e-09
-8.26266e-09
-8.24919e-09
-8.19129e-09
-8.09032e-09
-7.94964e-09
-7.77195e-09
-7.56264e-09
-7.32646e-09
-7.06969e-09
-6.79896e-09
-6.52127e-09
-6.24372e-09
-5.9739e-09
-5.71824e-09
-5.48431e-09
-5.27717e-09
-5.10355e-09
-5.25499e-09
-5.15095e-09
-5.08251e-09
-5.05363e-09
-5.06388e-09
-5.11201e-09
-5.19667e-09
-5.31607e-09
-5.46699e-09
-5.64531e-09
-5.84667e-09
-6.06553e-09
-6.29647e-09
-6.53337e-09
-6.77029e-09
-7.00099e-09
-7.21962e-09
-7.42051e-09
-7.5986e-09
-7.7492e-09
-7.86832e-09
-7.95302e-09
-8.001e-09
-8.01106e-09
-7.98288e-09
-7.9171e-09
-7.81597e-09
-7.68139e-09
-7.51745e-09
-7.32784e-09
-7.11761e-09
-6.89217e-09
-6.65736e-09
-6.41921e-09
-6.18417e-09
-5.95791e-09
-5.74697e-09
-5.55605e-09
-5.39093e-09
-5.51187e-09
-5.40303e-09
-5.32299e-09
-5.27583e-09
-5.26189e-09
-5.28071e-09
-5.3317e-09
-5.4139e-09
-5.52508e-09
-5.6622e-09
-5.82191e-09
-5.99981e-09
-6.19152e-09
-6.39192e-09
-6.59602e-09
-6.79842e-09
-6.994e-09
-7.17767e-09
-7.34482e-09
-7.49105e-09
-7.61249e-09
-7.70613e-09
-7.76945e-09
-7.80083e-09
-7.79943e-09
-7.76517e-09
-7.69945e-09
-7.60332e-09
-7.47983e-09
-7.33166e-09
-7.16279e-09
-6.97754e-09
-6.78072e-09
-6.57735e-09
-6.37295e-09
-6.17245e-09
-5.98158e-09
-5.80468e-09
-5.64675e-09
-5.73692e-09
-5.62401e-09
-5.53403e-09
-5.47113e-09
-5.43625e-09
-5.42958e-09
-5.45126e-09
-5.50103e-09
-5.57753e-09
-5.67866e-09
-5.80195e-09
-5.944e-09
-6.1013e-09
-6.26966e-09
-6.44488e-09
-6.62233e-09
-6.79752e-09
-6.9659e-09
-7.12321e-09
-7.26533e-09
-7.38853e-09
-7.48969e-09
-7.56614e-09
-7.61592e-09
-7.63771e-09
-7.63086e-09
-7.59596e-09
-7.5334e-09
-7.44521e-09
-7.33327e-09
-7.2006e-09
-7.05057e-09
-6.88707e-09
-6.7143e-09
-6.53691e-09
-6.35921e-09
-6.18619e-09
-6.02186e-09
-5.87069e-09
-5.93139e-09
-5.81583e-09
-5.7181e-09
-5.64239e-09
-5.59017e-09
-5.56219e-09
-5.55914e-09
-5.58137e-09
-5.62825e-09
-5.69848e-09
-5.79037e-09
-5.90135e-09
-6.0287e-09
-6.16901e-09
-6.3188e-09
-6.47408e-09
-6.63095e-09
-6.78531e-09
-6.93327e-09
-7.07096e-09
-7.19475e-09
-7.30152e-09
-7.38845e-09
-7.4533e-09
-7.49438e-09
-7.51052e-09
-7.50169e-09
-7.46766e-09
-7.40968e-09
-7.32889e-09
-7.2275e-09
-7.10804e-09
-6.97365e-09
-6.82773e-09
-6.67423e-09
-6.51687e-09
-6.36003e-09
-6.20741e-09
-6.06304e-09
-6.0975e-09
-5.98097e-09
-5.87798e-09
-5.79268e-09
-5.72688e-09
-5.68179e-09
-5.65855e-09
-5.65802e-09
-5.68016e-09
-5.72434e-09
-5.78951e-09
-5.87383e-09
-5.97524e-09
-6.09101e-09
-6.21828e-09
-6.35366e-09
-6.49374e-09
-6.63488e-09
-6.77348e-09
-6.90593e-09
-7.02878e-09
-7.13888e-09
-7.23335e-09
-7.30975e-09
-7.36609e-09
-7.40087e-09
-7.41344e-09
-7.40314e-09
-7.37053e-09
-7.31613e-09
-7.24146e-09
-7.14838e-09
-7.03932e-09
-6.91705e-09
-6.78486e-09
-6.64599e-09
-6.50423e-09
-6.363e-09
-6.22602e-09
-6.23793e-09
-6.12237e-09
-6.01669e-09
-5.92496e-09
-5.84925e-09
-5.7911e-09
-5.752e-09
-5.73318e-09
-5.73509e-09
-5.75765e-09
-5.80033e-09
-5.86191e-09
-5.9409e-09
-6.03516e-09
-6.14237e-09
-6.25966e-09
-6.38408e-09
-6.51239e-09
-6.64133e-09
-6.76754e-09
-6.88773e-09
-6.99881e-09
-7.09789e-09
-7.18239e-09
-7.25014e-09
-7.29932e-09
-7.32889e-09
-7.3378e-09
-7.32607e-09
-7.29372e-09
-7.24169e-09
-7.17124e-09
-7.08423e-09
-6.98285e-09
-6.86983e-09
-6.74794e-09
-6.6205e-09
-6.49061e-09
-6.36173e-09
-6.35554e-09
-6.24281e-09
-6.13691e-09
-6.04177e-09
-5.95958e-09
-5.8921e-09
-5.84109e-09
-5.80805e-09
-5.79381e-09
-5.79872e-09
-5.82269e-09
-5.86501e-09
-5.92466e-09
-6.00002e-09
-6.08923e-09
-6.18992e-09
-6.29953e-09
-6.41522e-09
-6.53405e-09
-6.65292e-09
-6.76872e-09
-6.87849e-09
-6.97938e-09
-7.06875e-09
-7.14432e-09
-7.20407e-09
-7.24664e-09
-7.27071e-09
-7.27584e-09
-7.26167e-09
-7.22865e-09
-7.17756e-09
-7.10975e-09
-7.02692e-09
-6.93131e-09
-6.82526e-09
-6.71165e-09
-6.59328e-09
-6.47341e-09
-6.4531e-09
-6.34495e-09
-6.24106e-09
-6.14519e-09
-6.05954e-09
-5.98606e-09
-5.92663e-09
-5.88296e-09
-5.85616e-09
-5.8469e-09
-5.85546e-09
-5.88154e-09
-5.92453e-09
-5.98325e-09
-6.05625e-09
-6.14159e-09
-6.2371e-09
-6.34031e-09
-6.44858e-09
-6.5591e-09
-6.66899e-09
-6.77542e-09
-6.87563e-09
-6.967e-09
-7.04721e-09
-7.11411e-09
-7.16614e-09
-7.20175e-09
-7.2202e-09
-7.22081e-09
-7.20363e-09
-7.16903e-09
-7.11794e-09
-7.05163e-09
-6.97188e-09
-6.88067e-09
-6.78046e-09
-6.67375e-09
-6.56359e-09
-6.53314e-09
-6.43101e-09
-6.33103e-09
-6.2367e-09
-6.15022e-09
-6.07357e-09
-6.00873e-09
-5.95752e-09
-5.92127e-09
-5.90088e-09
-5.89692e-09
-5.90943e-09
-5.93812e-09
-5.9822e-09
-6.04058e-09
-6.11171e-09
-6.19379e-09
-6.28469e-09
-6.38209e-09
-6.48344e-09
-6.58612e-09
-6.68748e-09
-6.78489e-09
-6.87583e-09
-6.95794e-09
-7.02908e-09
-7.08752e-09
-7.13161e-09
-7.16032e-09
-7.17275e-09
-7.16864e-09
-7.14803e-09
-7.11147e-09
-7.05987e-09
-6.99463e-09
-6.91737e-09
-6.83016e-09
-6.73522e-09
-6.63537e-09
-6.59788e-09
-6.50294e-09
-6.40837e-09
-6.31743e-09
-6.23223e-09
-6.15475e-09
-6.08702e-09
-6.03088e-09
-5.98781e-09
-5.95889e-09
-5.9449e-09
-5.94614e-09
-5.96263e-09
-5.99387e-09
-6.03912e-09
-6.09716e-09
-6.16652e-09
-6.24541e-09
-6.3318e-09
-6.42345e-09
-6.51798e-09
-6.61295e-09
-6.7059e-09
-6.79441e-09
-6.87621e-09
-6.94915e-09
-7.01144e-09
-7.06135e-09
-7.0977e-09
-7.1194e-09
-7.12594e-09
-7.1171e-09
-7.09311e-09
-7.05457e-09
-7.00253e-09
-6.93827e-09
-6.86354e-09
-6.78025e-09
-6.69099e-09
-6.64928e-09
-6.5623e-09
-6.47422e-09
-6.38806e-09
-6.3058e-09
-6.22938e-09
-6.16078e-09
-6.10188e-09
-6.0542e-09
-6.01898e-09
-5.99713e-09
-5.98917e-09
-5.99534e-09
-6.01543e-09
-6.04896e-09
-6.09503e-09
-6.15249e-09
-6.21982e-09
-6.29532e-09
-6.37702e-09
-6.4628e-09
-6.55044e-09
-6.63768e-09
-6.72225e-09
-6.80198e-09
-6.87478e-09
-6.93884e-09
-6.99241e-09
-7.03418e-09
-7.06296e-09
-7.07804e-09
-7.07899e-09
-7.06579e-09
-7.03876e-09
-6.99863e-09
-6.94642e-09
-6.88354e-09
-6.81161e-09
-6.73301e-09
-6.68904e-09
-6.61045e-09
-6.52957e-09
-6.44914e-09
-6.37102e-09
-6.29706e-09
-6.2292e-09
-6.16926e-09
-6.11882e-09
-6.07916e-09
-6.05132e-09
-6.03597e-09
-6.03354e-09
-6.04404e-09
-6.06725e-09
-6.10253e-09
-6.14899e-09
-6.20543e-09
-6.2704e-09
-6.34222e-09
-6.41902e-09
-6.49881e-09
-6.57954e-09
-6.65909e-09
-6.73545e-09
-6.80658e-09
-6.87074e-09
-6.92617e-09
-6.97152e-09
-7.0055e-09
-7.02728e-09
-7.03624e-09
-7.03217e-09
-7.01514e-09
-6.98564e-09
-6.94439e-09
-6.89254e-09
-6.83145e-09
-6.76318e-09
-6.71869e-09
-6.64857e-09
-6.57519e-09
-6.50105e-09
-6.42786e-09
-6.35737e-09
-6.29144e-09
-6.23182e-09
-6.18008e-09
-6.13755e-09
-6.10533e-09
-6.08422e-09
-6.07476e-09
-6.07719e-09
-6.09145e-09
-6.11716e-09
-6.15368e-09
-6.20005e-09
-6.2551e-09
-6.31738e-09
-6.38528e-09
-6.45706e-09
-6.53084e-09
-6.60473e-09
-6.67681e-09
-6.7452e-09
-6.8082e-09
-6.86409e-09
-6.91149e-09
-6.9491e-09
-6.97596e-09
-6.99134e-09
-6.99485e-09
-6.98639e-09
-6.96621e-09
-6.9348e-09
-6.89304e-09
-6.84204e-09
-6.78362e-09
-6.73966e-09
-6.67779e-09
-6.61189e-09
-6.54422e-09
-6.47636e-09
-6.40997e-09
-6.34677e-09
-6.28848e-09
-6.23659e-09
-6.19246e-09
-6.15722e-09
-6.13174e-09
-6.1167e-09
-6.11246e-09
-6.11914e-09
-6.13655e-09
-6.16427e-09
-6.20157e-09
-6.2475e-09
-6.30087e-09
-6.36029e-09
-6.42422e-09
-6.49102e-09
-6.55895e-09
-6.62626e-09
-6.69119e-09
-6.7521e-09
-6.80738e-09
-6.85563e-09
-6.89553e-09
-6.92608e-09
-6.94644e-09
-6.95611e-09
-6.95481e-09
-6.9426e-09
-6.9198e-09
-6.88703e-09
-6.84518e-09
-6.79579e-09
-6.7534e-09
-6.69925e-09
-6.64047e-09
-6.57911e-09
-6.51665e-09
-6.45462e-09
-6.39464e-09
-6.33832e-09
-6.28714e-09
-6.2424e-09
-6.20527e-09
-6.17666e-09
-6.15733e-09
-6.14774e-09
-6.14816e-09
-6.15857e-09
-6.17871e-09
-6.20806e-09
-6.24588e-09
-6.29117e-09
-6.34276e-09
-6.39933e-09
-6.45941e-09
-6.52143e-09
-6.58381e-09
-6.64492e-09
-6.7032e-09
-6.75712e-09
-6.8053e-09
-6.84645e-09
-6.87951e-09
-6.9036e-09
-6.91811e-09
-6.92264e-09
-6.91711e-09
-6.90164e-09
-6.87669e-09
-6.84292e-09
-6.80161e-09
-6.76141e-09
-6.7142e-09
-6.66193e-09
-6.60643e-09
-6.5491e-09
-6.49138e-09
-6.43475e-09
-6.38076e-09
-6.33081e-09
-6.28618e-09
-6.24802e-09
-6.21729e-09
-6.19478e-09
-6.18105e-09
-6.17646e-09
-6.18114e-09
-6.19496e-09
-6.21757e-09
-6.2484e-09
-6.28665e-09
-6.33132e-09
-6.38126e-09
-6.43518e-09
-6.49167e-09
-6.54929e-09
-6.60653e-09
-6.66194e-09
-6.71404e-09
-6.76153e-09
-6.80312e-09
-6.83775e-09
-6.8645e-09
-6.88268e-09
-6.8918e-09
-6.89166e-09
-6.88225e-09
-6.86384e-09
-6.83695e-09
-6.80255e-09
-6.76532e-09
-6.7241e-09
-6.67747e-09
-6.62712e-09
-6.57441e-09
-6.52064e-09
-6.46722e-09
-6.4156e-09
-6.36712e-09
-6.32303e-09
-6.28445e-09
-6.25238e-09
-6.22761e-09
-6.21078e-09
-6.20232e-09
-6.20246e-09
-6.21119e-09
-6.2283e-09
-6.25334e-09
-6.28568e-09
-6.32446e-09
-6.3687e-09
-6.41724e-09
-6.46882e-09
-6.52212e-09
-6.57575e-09
-6.62834e-09
-6.67851e-09
-6.72497e-09
-6.76648e-09
-6.80199e-09
-6.83055e-09
-6.85142e-09
-6.86405e-09
-6.86814e-09
-6.86357e-09
-6.85048e-09
-6.82925e-09
-6.80061e-09
-6.76685e-09
-6.73053e-09
-6.68858e-09
-6.64255e-09
-6.59374e-09
-6.54338e-09
-6.49278e-09
-6.44333e-09
-6.39629e-09
-6.3529e-09
-6.31426e-09
-6.28134e-09
-6.25499e-09
-6.23586e-09
-6.22447e-09
-6.22109e-09
-6.22584e-09
-6.23858e-09
-6.25899e-09
-6.28655e-09
-6.32054e-09
-6.36008e-09
-6.40416e-09
-6.45161e-09
-6.50123e-09
-6.55171e-09
-6.60178e-09
-6.65012e-09
-6.69547e-09
-6.73666e-09
-6.77261e-09
-6.80237e-09
-6.82518e-09
-6.84044e-09
-6.84777e-09
-6.84696e-09
-6.83805e-09
-6.82132e-09
-6.79729e-09
-6.76732e-09
-6.73495e-09
-6.69678e-09
-6.65429e-09
-6.60872e-09
-6.56121e-09
-6.51302e-09
-6.46544e-09
-6.41971e-09
-6.37701e-09
-6.33845e-09
-6.30499e-09
-6.27749e-09
-6.25663e-09
-6.24298e-09
-6.23686e-09
-6.23845e-09
-6.24772e-09
-6.26443e-09
-6.28814e-09
-6.31824e-09
-6.35395e-09
-6.39436e-09
-6.4384e-09
-6.48495e-09
-6.5328e-09
-6.58071e-09
-6.62744e-09
-6.67178e-09
-6.71256e-09
-6.74873e-09
-6.77934e-09
-6.80359e-09
-6.82087e-09
-6.83071e-09
-6.83288e-09
-6.8273e-09
-6.81417e-09
-6.79392e-09
-6.76583e-09
-6.73713e-09
-6.70263e-09
-6.66367e-09
-6.62139e-09
-6.57686e-09
-6.53123e-09
-6.48574e-09
-6.44158e-09
-6.39989e-09
-6.36174e-09
-6.32809e-09
-6.2998e-09
-6.27759e-09
-6.26204e-09
-6.25354e-09
-6.25232e-09
-6.25841e-09
-6.27166e-09
-6.29174e-09
-6.31811e-09
-6.3501e-09
-6.38688e-09
-6.4275e-09
-6.4709e-09
-6.51597e-09
-6.56153e-09
-6.60641e-09
-6.64944e-09
-6.68949e-09
-6.72554e-09
-6.75663e-09
-6.78195e-09
-6.80086e-09
-6.81287e-09
-6.81765e-09
-6.81508e-09
-6.8053e-09
-6.78866e-09
-6.75502e-09
-6.73203e-09
-6.70349e-09
-6.67051e-09
-6.63405e-09
-6.595e-09
-6.55439e-09
-6.51332e-09
-6.47286e-09
-6.43405e-09
-6.3979e-09
-6.36532e-09
-6.33714e-09
-6.31408e-09
-6.29673e-09
-6.28553e-09
-6.28079e-09
-6.28263e-09
-6.29101e-09
-6.3057e-09
-6.32633e-09
-6.35237e-09
-6.38314e-09
-6.41785e-09
-6.45559e-09
-6.49539e-09
-6.53623e-09
-6.57703e-09
-6.61675e-09
-6.65434e-09
-6.68884e-09
-6.71933e-09
-6.74503e-09
-6.76528e-09
-6.77955e-09
-6.78747e-09
-6.78883e-09
-6.78368e-09
-6.77232e-09
-6.73642e-09
-6.72031e-09
-6.69908e-09
-6.67358e-09
-6.64451e-09
-6.61259e-09
-6.57865e-09
-6.54362e-09
-6.50841e-09
-6.47393e-09
-6.44107e-09
-6.41067e-09
-6.38349e-09
-6.36024e-09
-6.34151e-09
-6.32777e-09
-6.3194e-09
-6.31661e-09
-6.31948e-09
-6.32793e-09
-6.34174e-09
-6.36057e-09
-6.38391e-09
-6.41117e-09
-6.44164e-09
-6.47453e-09
-6.509e-09
-6.54413e-09
-6.57904e-09
-6.6128e-09
-6.64453e-09
-6.67342e-09
-6.6987e-09
-6.71974e-09
-6.73598e-09
-6.74702e-09
-6.75257e-09
-6.75256e-09
-6.74717e-09
-6.71746e-09
-6.70709e-09
-6.69199e-09
-6.67284e-09
-6.65015e-09
-6.62447e-09
-6.59647e-09
-6.56691e-09
-6.53657e-09
-6.50622e-09
-6.47666e-09
-6.44864e-09
-6.42286e-09
-6.39999e-09
-6.38062e-09
-6.36523e-09
-6.35424e-09
-6.34793e-09
-6.34647e-09
-6.34989e-09
-6.35811e-09
-6.37091e-09
-6.38797e-09
-6.40884e-09
-6.43298e-09
-6.45977e-09
-6.48852e-09
-6.51847e-09
-6.54886e-09
-6.57888e-09
-6.60775e-09
-6.63474e-09
-6.65913e-09
-6.6803e-09
-6.69771e-09
-6.71091e-09
-6.71958e-09
-6.72356e-09
-6.72294e-09
-6.69792e-09
-6.69244e-09
-6.68266e-09
-6.66909e-09
-6.65208e-09
-6.63204e-09
-6.60949e-09
-6.58505e-09
-6.55934e-09
-6.53305e-09
-6.50684e-09
-6.48139e-09
-6.45734e-09
-6.43531e-09
-6.41586e-09
-6.3995e-09
-6.38664e-09
-6.37763e-09
-6.37269e-09
-6.37196e-09
-6.37546e-09
-6.3831e-09
-6.39467e-09
-6.40989e-09
-6.42835e-09
-6.44958e-09
-6.47303e-09
-6.49808e-09
-6.5241e-09
-6.5504e-09
-6.57629e-09
-6.60111e-09
-6.62421e-09
-6.645e-09
-6.66295e-09
-6.67759e-09
-6.68858e-09
-6.6957e-09
-6.69892e-09
-6.6779e-09
-6.6766e-09
-6.67141e-09
-6.66273e-09
-6.65079e-09
-6.63586e-09
-6.61833e-09
-6.59866e-09
-6.57739e-09
-6.55506e-09
-6.53225e-09
-6.50954e-09
-6.4875e-09
-6.4667e-09
-6.44768e-09
-6.43092e-09
-6.41686e-09
-6.40586e-09
-6.3982e-09
-6.3941e-09
-6.39365e-09
-6.39686e-09
-6.40366e-09
-6.41387e-09
-6.42723e-09
-6.44338e-09
-6.46191e-09
-6.48235e-09
-6.50415e-09
-6.52674e-09
-6.54956e-09
-6.57199e-09
-6.59346e-09
-6.61342e-09
-6.63136e-09
-6.64683e-09
-6.65945e-09
-6.66896e-09
-6.67526e-09
-6.65779e-09
-6.65992e-09
-6.65862e-09
-6.65416e-09
-6.64667e-09
-6.63629e-09
-6.6233e-09
-6.60806e-09
-6.59097e-09
-6.57246e-09
-6.55302e-09
-6.53315e-09
-6.51334e-09
-6.49411e-09
-6.47594e-09
-6.45931e-09
-6.44464e-09
-6.43232e-09
-6.42266e-09
-6.41592e-09
-6.41227e-09
-6.4118e-09
-6.41453e-09
-6.42039e-09
-6.42923e-09
-6.44081e-09
-6.45485e-09
-6.47096e-09
-6.48874e-09
-6.50772e-09
-6.52741e-09
-6.54729e-09
-6.56685e-09
-6.5856e-09
-6.60306e-09
-6.61878e-09
-6.63238e-09
-6.64358e-09
-6.65221e-09
-6.63796e-09
-6.64284e-09
-6.64473e-09
-6.64382e-09
-6.64014e-09
-6.63376e-09
-6.62483e-09
-6.61361e-09
-6.6004e-09
-6.58553e-09
-6.56939e-09
-6.55239e-09
-6.53496e-09
-6.51756e-09
-6.50061e-09
-6.48456e-09
-6.46983e-09
-6.45678e-09
-6.44578e-09
-6.43709e-09
-6.43094e-09
-6.4275e-09
-6.42685e-09
-6.42901e-09
-6.43392e-09
-6.44147e-09
-6.45145e-09
-6.4636e-09
-6.4776e-09
-6.4931e-09
-6.50968e-09
-6.52693e-09
-6.54438e-09
-6.56161e-09
-6.57817e-09
-6.59365e-09
-6.60766e-09
-6.61991e-09
-6.63019e-09
-6.61878e-09
-6.62574e-09
-6.63016e-09
-6.63216e-09
-6.63169e-09
-6.62874e-09
-6.62338e-09
-6.61576e-09
-6.6061e-09
-6.59463e-09
-6.58166e-09
-6.56751e-09
-6.55254e-09
-6.53714e-09
-6.5217e-09
-6.50661e-09
-6.49227e-09
-6.47904e-09
-6.46727e-09
-6.45726e-09
-6.44928e-09
-6.44353e-09
-6.44015e-09
-6.43924e-09
-6.44083e-09
-6.44486e-09
-6.45124e-09
-6.4598e-09
-6.47032e-09
-6.48251e-09
-6.49607e-09
-6.51065e-09
-6.52586e-09
-6.54133e-09
-6.55666e-09
-6.57146e-09
-6.58538e-09
-6.59811e-09
-6.60941e-09
-6.60055e-09
-6.609e-09
-6.61534e-09
-6.61963e-09
-6.62178e-09
-6.62171e-09
-6.61941e-09
-6.61497e-09
-6.60849e-09
-6.60015e-09
-6.59016e-09
-6.57878e-09
-6.56629e-09
-6.55302e-09
-6.53929e-09
-6.52546e-09
-6.5119e-09
-6.49894e-09
-6.48693e-09
-6.47617e-09
-6.46695e-09
-6.4595e-09
-6.45402e-09
-6.45065e-09
-6.44947e-09
-6.45053e-09
-6.45378e-09
-6.45915e-09
-6.4665e-09
-6.47562e-09
-6.4863e-09
-6.49824e-09
-6.51115e-09
-6.52469e-09
-6.53854e-09
-6.55233e-09
-6.56573e-09
-6.57844e-09
-6.59023e-09
-6.58361e-09
-6.59297e-09
-6.60065e-09
-6.60667e-09
-6.61088e-09
-6.61315e-09
-6.61343e-09
-6.61171e-09
-6.60804e-09
-6.60252e-09
-6.59529e-09
-6.58654e-09
-6.57648e-09
-6.56537e-09
-6.5535e-09
-6.54116e-09
-6.52867e-09
-6.51636e-09
-6.50455e-09
-6.49354e-09
-6.48361e-09
-6.47503e-09
-6.46802e-09
-6.46275e-09
-6.45937e-09
-6.45796e-09
-6.45856e-09
-6.46115e-09
-6.46567e-09
-6.47199e-09
-6.47996e-09
-6.48936e-09
-6.49997e-09
-6.5115e-09
-6.52367e-09
-6.53618e-09
-6.54871e-09
-6.561e-09
-6.5728e-09
-6.56816e-09
-6.57796e-09
-6.58648e-09
-6.59369e-09
-6.59944e-09
-6.60355e-09
-6.6059e-09
-6.60646e-09
-6.60521e-09
-6.60219e-09
-6.59746e-09
-6.59115e-09
-6.58342e-09
-6.57446e-09
-6.56451e-09
-6.5538e-09
-6.54263e-09
-6.53127e-09
-6.52002e-09
-6.50917e-09
-6.49901e-09
-6.48979e-09
-6.48177e-09
-6.47513e-09
-6.47006e-09
-6.46669e-09
-6.46511e-09
-6.46535e-09
-6.4674e-09
-6.47122e-09
-6.47671e-09
-6.48372e-09
-6.49207e-09
-6.50157e-09
-6.51196e-09
-6.523e-09
-6.53441e-09
-6.54594e-09
-6.55735e-09