/*--------------------------------*- C++ -*----------------------------------*\
| =========                 |                                                 |
| \\      /  F ield         | OpenFOAM: The Open Source CFD Toolbox           |
|  \\    /   O peration     | Version:  4.x                                   |
|   \\  /    A nd           | Web:      www.OpenFOAM.org                      |
|    \\/     M anipulation  |                                                 |
\*---------------------------------------------------------------------------*/
FoamFile
{
    version     2.0;
    format      ascii;
    class       surfaceScalarField;
    location    "6000";
    object      phi;
}
// * * * * * * * * * * * * * * * * * * * * * * * * * * * * * * * * * * * * * //

dimensions      [0 3 -1 0 0 0 0];

internalField   nonuniform List<scalar> 
12897
(
1.21295e-07
-9.44076e-13
1.21296e-07
-8.18127e-13
1.21297e-07
-7.00156e-13
1.21297e-07
-5.58302e-13
1.21297e-07
-4.04809e-13
1.21298e-07
-2.46169e-13
1.21298e-07
-8.11335e-14
1.21298e-07
8.73316e-14
1.21297e-07
2.50975e-13
1.21297e-07
4.1101e-13
1.21296e-07
5.57773e-13
1.21296e-07
6.90159e-13
1.21295e-07
8.0413e-13
1.21294e-07
8.98803e-13
1.21293e-07
9.70217e-13
1.21292e-07
1.0164e-12
1.21291e-07
1.03598e-12
1.2129e-07
1.03053e-12
1.21289e-07
9.98571e-13
1.21288e-07
9.3868e-13
1.21287e-07
8.56245e-13
1.21286e-07
7.49209e-13
1.21286e-07
6.256e-13
1.21285e-07
4.82939e-13
1.21285e-07
3.27066e-13
1.21285e-07
1.66733e-13
1.21285e-07
-1.76784e-15
1.21285e-07
-1.66308e-13
1.21285e-07
-3.27942e-13
1.21286e-07
-4.82707e-13
1.21287e-07
-6.23332e-13
1.21287e-07
-7.49394e-13
1.21288e-07
-8.55884e-13
1.21289e-07
-9.38111e-13
1.2129e-07
-1.0006e-12
1.21291e-07
-1.02827e-12
1.21292e-07
-1.03813e-12
1.21293e-07
-1.01259e-12
-9.57765e-13
3.7366e-07
-3.18955e-12
3.73662e-07
-2.78671e-12
3.73663e-07
-2.3182e-12
3.73665e-07
-1.77383e-12
3.73665e-07
-1.18641e-12
3.73666e-07
-5.73853e-13
3.73666e-07
4.57011e-14
3.73665e-07
6.65124e-13
3.73664e-07
1.26436e-12
3.73663e-07
1.832e-12
3.73661e-07
2.35039e-12
3.73659e-07
2.80812e-12
3.73656e-07
3.19194e-12
3.73654e-07
3.49505e-12
3.73651e-07
3.70939e-12
3.73648e-07
3.82763e-12
3.73645e-07
3.84709e-12
3.73643e-07
3.76767e-12
3.7364e-07
3.5934e-12
3.73638e-07
3.3232e-12
3.73636e-07
2.96844e-12
3.73634e-07
2.53327e-12
3.73632e-07
2.03577e-12
3.73631e-07
1.48175e-12
3.73631e-07
8.87875e-13
3.73631e-07
2.72263e-13
3.73631e-07
-3.49228e-13
3.73632e-07
-9.59945e-13
3.73633e-07
-1.54402e-12
3.73635e-07
-2.09004e-12
3.73637e-07
-2.58143e-12
3.73639e-07
-3.00721e-12
3.73641e-07
-3.35567e-12
3.73644e-07
-3.61552e-12
3.73647e-07
-3.78567e-12
3.7365e-07
-3.85007e-12
3.73652e-07
-3.82197e-12
3.73655e-07
-3.68532e-12
-3.45422e-12
6.47657e-07
-6.46069e-12
6.4766e-07
-5.53979e-12
6.47662e-07
-4.47715e-12
6.47664e-07
-3.27668e-12
6.47665e-07
-1.99125e-12
6.47665e-07
-6.64356e-13
6.47664e-07
6.69234e-13
6.47663e-07
1.98369e-12
6.47661e-07
3.24257e-12
6.47658e-07
4.41873e-12
6.47655e-07
5.47744e-12
6.47651e-07
6.39518e-12
6.47647e-07
7.14607e-12
6.47643e-07
7.71495e-12
6.47639e-07
8.08633e-12
6.47634e-07
8.24956e-12
6.4763e-07
8.19919e-12
6.47626e-07
7.93831e-12
6.47622e-07
7.47458e-12
6.47619e-07
6.8146e-12
6.47616e-07
5.97927e-12
6.47613e-07
4.9843e-12
6.47611e-07
3.86296e-12
6.4761e-07
2.63689e-12
6.4761e-07
1.33863e-12
6.4761e-07
9.4782e-15
6.47611e-07
-1.31992e-12
6.47613e-07
-2.60914e-12
6.47615e-07
-3.82977e-12
6.47618e-07
-4.95255e-12
6.47621e-07
-5.94672e-12
6.47625e-07
-6.78878e-12
6.47629e-07
-7.45627e-12
6.47633e-07
-7.92823e-12
6.47638e-07
-8.20115e-12
6.47642e-07
-8.24986e-12
6.47646e-07
-8.09595e-12
6.4765e-07
-7.71853e-12
-7.1443e-12
9.42982e-07
-1.03955e-11
9.42986e-07
-8.74223e-12
9.42988e-07
-6.85108e-12
9.42989e-07
-4.75944e-12
9.4299e-07
-2.54298e-12
9.4299e-07
-2.69606e-13
9.42988e-07
1.99595e-12
9.42986e-07
4.20551e-12
9.42983e-07
6.30171e-12
9.42979e-07
8.23407e-12
9.42975e-07
9.95112e-12
9.4297e-07
1.14124e-11
9.42964e-07
1.25775e-11
9.42958e-07
1.342e-11
9.42953e-07
1.39184e-11
9.42947e-07
1.40584e-11
9.42941e-07
1.3835e-11
9.42936e-07
1.3254e-11
9.42931e-07
1.23332e-11
9.42927e-07
1.1091e-11
9.42923e-07
9.56184e-12
9.4292e-07
7.77961e-12
9.42918e-07
5.79698e-12
9.42917e-07
3.65927e-12
9.42917e-07
1.42162e-12
9.42918e-07
-8.51929e-13
9.4292e-07
-3.09896e-12
9.42923e-07
-5.25988e-12
9.42926e-07
-7.28115e-12
9.4293e-07
-9.11389e-12
9.42935e-07
-1.07111e-11
9.4294e-07
-1.20327e-11
9.42946e-07
-1.30446e-11
9.42952e-07
-1.37175e-11
9.42957e-07
-1.40403e-11
9.42963e-07
-1.39908e-11
9.42969e-07
-1.35873e-11
9.42974e-07
-1.28177e-11
-1.17274e-11
1.25713e-06
-1.47133e-11
1.25714e-06
-1.20971e-11
1.25714e-06
-9.15692e-12
1.25714e-06
-5.96278e-12
1.25714e-06
-2.61373e-12
1.25714e-06
7.90208e-13
1.25714e-06
4.16192e-12
1.25714e-06
7.4206e-12
1.25713e-06
1.04819e-11
1.25713e-06
1.32724e-11
1.25712e-06
1.57164e-11
1.25711e-06
1.77561e-11
1.25711e-06
1.93366e-11
1.2571e-06
2.04206e-11
1.25709e-06
2.0979e-11
1.25709e-06
2.09969e-11
1.25708e-06
2.04717e-11
1.25707e-06
1.94179e-11
1.25707e-06
1.78631e-11
1.25706e-06
1.58435e-11
1.25706e-06
1.34134e-11
1.25706e-06
1.06297e-11
1.25705e-06
7.57024e-12
1.25705e-06
4.30856e-12
1.25705e-06
9.28627e-13
1.25706e-06
-2.47109e-12
1.25706e-06
-5.80396e-12
1.25706e-06
-8.97667e-12
1.25707e-06
-1.19146e-11
1.25707e-06
-1.45436e-11
1.25708e-06
-1.67956e-11
1.25709e-06
-1.86151e-11
1.25709e-06
-1.99545e-11
1.2571e-06
-2.07758e-11
1.25711e-06
-2.10653e-11
1.25711e-06
-2.07982e-11
1.25712e-06
-2.0003e-11
1.25713e-06
-1.86723e-11
-1.68747e-11
1.58342e-06
-1.90884e-11
1.58342e-06
-1.53284e-11
1.58342e-06
-1.1157e-11
1.58343e-06
-6.68887e-12
1.58342e-06
-2.05041e-12
1.58342e-06
2.62983e-12
1.58342e-06
7.23036e-12
1.58342e-06
1.16382e-11
1.58341e-06
1.57404e-11
1.5834e-06
1.94354e-11
1.5834e-06
2.26264e-11
1.58339e-06
2.52353e-11
1.58338e-06
2.71929e-11
1.58337e-06
2.84506e-11
1.58337e-06
2.89753e-11
1.58336e-06
2.87525e-11
1.58335e-06
2.77859e-11
1.58334e-06
2.61002e-11
1.58334e-06
2.37398e-11
1.58333e-06
2.07624e-11
1.58333e-06
1.72459e-11
1.58333e-06
1.32762e-11
1.58333e-06
8.96037e-12
1.58333e-06
4.40633e-12
1.58333e-06
-2.68146e-13
1.58333e-06
-4.93243e-12
1.58333e-06
-9.46362e-12
1.58334e-06
-1.37412e-11
1.58334e-06
-1.7659e-11
1.58335e-06
-2.11183e-11
1.58336e-06
-2.40304e-11
1.58336e-06
-2.63223e-11
1.58337e-06
-2.79348e-11
1.58338e-06
-2.88236e-11
1.58339e-06
-2.89708e-11
1.5834e-06
-2.83599e-11
1.5834e-06
-2.70223e-11
1.58341e-06
-2.49674e-11
-2.22895e-11
1.91131e-06
-2.32769e-11
1.91131e-06
-1.82161e-11
1.91131e-06
-1.26744e-11
1.91131e-06
-6.80688e-12
1.91131e-06
-7.69285e-13
1.91131e-06
5.27347e-12
1.9113e-06
1.11715e-11
1.9113e-06
1.67753e-11
1.91129e-06
2.19406e-11
1.91129e-06
2.65407e-11
1.91128e-06
3.04532e-11
1.91127e-06
3.35816e-11
1.91126e-06
3.58443e-11
1.91125e-06
3.71842e-11
1.91124e-06
3.75645e-11
1.91124e-06
3.6975e-11
1.91123e-06
3.54283e-11
1.91122e-06
3.29654e-11
1.91121e-06
2.96477e-11
1.91121e-06
2.55592e-11
1.91121e-06
2.08063e-11
1.9112e-06
1.55075e-11
1.9112e-06
9.80347e-12
1.9112e-06
3.83947e-12
1.91121e-06
-2.2286e-12
1.91121e-06
-8.23167e-12
1.91121e-06
-1.40197e-11
1.91122e-06
-1.94347e-11
1.91123e-06
-2.43443e-11
1.91123e-06
-2.86229e-11
1.91124e-06
-3.21589e-11
1.91125e-06
-3.48646e-11
1.91126e-06
-3.66695e-11
1.91127e-06
-3.75238e-11
1.91128e-06
-3.74115e-11
1.91128e-06
-3.63208e-11
1.91129e-06
-3.42979e-11
1.9113e-06
-3.13677e-11
-2.76521e-11
2.23065e-06
-2.70455e-11
2.23065e-06
-2.0595e-11
2.23065e-06
-1.36009e-11
2.23065e-06
-6.26279e-12
2.23065e-06
1.22932e-12
2.23065e-06
8.67605e-12
2.23064e-06
1.58881e-11
2.23064e-06
2.26837e-11
2.23063e-06
2.88888e-11
2.23062e-06
3.43488e-11
2.23061e-06
3.89212e-11
2.2306e-06
4.24912e-11
2.2306e-06
4.4966e-11
2.23059e-06
4.6282e-11
2.23058e-06
4.64032e-11
2.23057e-06
4.53254e-11
2.23056e-06
4.30742e-11
2.23055e-06
3.97075e-11
2.23055e-06
3.53109e-11
2.23054e-06
2.99962e-11
2.23054e-06
2.39012e-11
2.23054e-06
1.71796e-11
2.23054e-06
1.00089e-11
2.23054e-06
2.57513e-12
2.23054e-06
-4.92765e-12
2.23055e-06
-1.22974e-11
2.23055e-06
-1.93457e-11
2.23056e-06
-2.58857e-11
2.23057e-06
-3.17524e-11
2.23058e-06
-3.67964e-11
2.23058e-06
-4.08864e-11
2.23059e-06
-4.392e-11
2.2306e-06
-4.58182e-11
2.23061e-06
-4.65299e-11
2.23062e-06
-4.60402e-11
2.23063e-06
-4.43517e-11
2.23063e-06
-4.15201e-11
2.23064e-06
-3.75944e-11
-3.27245e-11
2.53565e-06
-3.02631e-11
2.53566e-06
-2.23642e-11
2.53566e-06
-1.38788e-11
2.53565e-06
-5.0446e-12
2.53565e-06
3.91064e-12
2.53565e-06
1.27476e-11
2.53564e-06
2.12466e-11
2.53564e-06
2.91908e-11
2.53563e-06
3.63759e-11
2.53562e-06
4.26238e-11
2.53561e-06
4.77694e-11
2.5356e-06
5.16837e-11
2.53559e-06
5.42655e-11
2.53558e-06
5.54483e-11
2.53557e-06
5.51985e-11
2.53557e-06
5.35219e-11
2.53556e-06
5.04592e-11
2.53555e-06
4.60905e-11
2.53555e-06
4.05249e-11
2.53554e-06
3.3905e-11
2.53554e-06
2.64032e-11
2.53554e-06
1.82096e-11
2.53554e-06
9.54068e-12
2.53554e-06
6.22204e-13
2.53555e-06
-8.31287e-12
2.53555e-06
-1.70247e-11
2.53556e-06
-2.52958e-11
2.53556e-06
-3.29033e-11
2.53557e-06
-3.96579e-11
2.53558e-06
-4.53863e-11
2.53559e-06
-4.99378e-11
2.5356e-06
-5.31992e-11
2.53561e-06
-5.50849e-11
2.53562e-06
-5.55433e-11
2.53563e-06
-5.45675e-11
2.53563e-06
-5.21699e-11
2.53564e-06
-4.84278e-11
2.53565e-06
-4.34109e-11
-3.72988e-11
2.82542e-06
-3.26263e-11
2.82542e-06
-2.32614e-11
2.82542e-06
-1.32863e-11
2.82542e-06
-2.97762e-12
2.82542e-06
7.39813e-12
2.82541e-06
1.75673e-11
2.82541e-06
2.72727e-11
2.8254e-06
3.62677e-11
2.82539e-06
4.43207e-11
2.82538e-06
5.12303e-11
2.82537e-06
5.68157e-11
2.82536e-06
6.09355e-11
2.82535e-06
6.34833e-11
2.82535e-06
6.4393e-11
2.82534e-06
6.36384e-11
2.82533e-06
6.12381e-11
2.82532e-06
5.7252e-11
2.82532e-06
5.17828e-11
2.82531e-06
4.49694e-11
2.82531e-06
3.69863e-11
2.82531e-06
2.80409e-11
2.82531e-06
1.83616e-11
2.82531e-06
8.20391e-12
2.82531e-06
-2.16702e-12
2.82532e-06
-1.24814e-11
2.82532e-06
-2.24667e-11
2.82533e-06
-3.18683e-11
2.82534e-06
-4.04385e-11
2.82534e-06
-4.79597e-11
2.82535e-06
-5.42399e-11
2.82536e-06
-5.91146e-11
2.82537e-06
-6.24614e-11
2.82538e-06
-6.4193e-11
2.82539e-06
-6.42625e-11
2.8254e-06
-6.26706e-11
2.8254e-06
-5.945e-11
2.82541e-06
-5.46937e-11
2.82542e-06
-4.85006e-11
-4.10809e-11
3.10205e-06
-3.38738e-11
3.10205e-06
-2.30499e-11
3.10205e-06
-1.16242e-11
3.10205e-06
9.22345e-14
3.10205e-06
1.17955e-11
3.10204e-06
2.31774e-11
3.10203e-06
3.39534e-11
3.10203e-06
4.38471e-11
3.10202e-06
5.26026e-11
3.10201e-06
6.00013e-11
3.102e-06
6.58475e-11
3.10199e-06
6.99935e-11
3.10198e-06
7.23327e-11
3.10197e-06
7.28045e-11
3.10196e-06
7.13933e-11
3.10196e-06
6.81356e-11
3.10195e-06
6.31129e-11
3.10195e-06
5.6456e-11
3.10194e-06
4.83328e-11
3.10194e-06
3.89524e-11
3.10194e-06
2.8559e-11
3.10194e-06
1.74188e-11
3.10195e-06
5.82593e-12
3.10195e-06
-5.91877e-12
3.10195e-06
-1.75095e-11
3.10196e-06
-2.86386e-11
3.10197e-06
-3.90263e-11
3.10198e-06
-4.83961e-11
3.10198e-06
-5.65122e-11
3.10199e-06
-6.31668e-11
3.102e-06
-6.81843e-11
3.10201e-06
-7.14396e-11
3.10202e-06
-7.28469e-11
3.10203e-06
-7.23674e-11
3.10203e-06
-7.00172e-11
3.10204e-06
-6.5846e-11
3.10205e-06
-5.99747e-11
3.10205e-06
-5.25284e-11
-4.37515e-11
3.36763e-06
-3.38919e-11
3.36763e-06
-2.16738e-11
3.36763e-06
-8.89112e-12
3.36763e-06
4.11192e-12
3.36762e-06
1.69981e-11
3.36762e-06
2.94314e-11
3.36761e-06
4.10972e-11
3.3676e-06
5.1697e-11
3.36759e-06
6.0956e-11
3.36758e-06
6.8641e-11
3.36757e-06
7.45503e-11
3.36757e-06
7.85335e-11
3.36756e-06
8.04879e-11
3.36755e-06
8.03629e-11
3.36754e-06
7.81587e-11
3.36754e-06
7.39321e-11
3.36753e-06
6.77905e-11
3.36753e-06
5.98926e-11
3.36753e-06
5.04397e-11
3.36753e-06
3.96753e-11
3.36753e-06
2.78794e-11
3.36753e-06
1.53555e-11
3.36753e-06
2.43326e-12
3.36754e-06
-1.05525e-11
3.36754e-06
-2.32643e-11
3.36755e-06
-3.53676e-11
3.36756e-06
-4.65534e-11
3.36757e-06
-5.65284e-11
3.36757e-06
-6.5038e-11
3.36758e-06
-7.1865e-11
3.36759e-06
-7.683e-11
3.3676e-06
-7.98085e-11
3.36761e-06
-8.07224e-11
3.36761e-06
-7.95462e-11
3.36762e-06
-7.63124e-11
3.36763e-06
-7.10971e-11
3.36763e-06
-6.40435e-11
3.36763e-06
-5.53101e-11
-4.51754e-11
3.62351e-06
-3.26705e-11
3.62351e-06
-1.91723e-11
3.62351e-06
-5.17691e-12
3.6235e-06
8.94308e-12
3.6235e-06
2.28208e-11
3.62349e-06
3.6095e-11
3.62348e-06
4.84323e-11
3.62347e-06
5.95152e-11
3.62347e-06
6.90553e-11
3.62346e-06
7.68126e-11
3.62345e-06
8.25814e-11
3.62344e-06
8.62154e-11
3.62343e-06
8.76208e-11
3.62343e-06
8.67615e-11
3.62342e-06
8.36563e-11
3.62342e-06
7.83859e-11
3.62341e-06
7.10848e-11
3.62341e-06
6.19425e-11
3.62341e-06
5.11917e-11
3.62341e-06
3.91097e-11
3.62341e-06
2.60116e-11
3.62342e-06
1.22352e-11
3.62342e-06
-1.85822e-12
3.62343e-06
-1.59047e-11
3.62343e-06
-2.95386e-11
3.62344e-06
-4.23999e-11
3.62345e-06
-5.41634e-11
3.62346e-06
-6.45181e-11
3.62346e-06
-7.32016e-11
3.62347e-06
-7.99914e-11
3.62348e-06
-8.47082e-11
3.62349e-06
-8.72346e-11
3.62349e-06
-8.75037e-11
3.6235e-06
-8.55062e-11
3.62351e-06
-8.12973e-11
3.62351e-06
-7.49764e-11
3.62351e-06
-6.67176e-11
3.62351e-06
-5.67095e-11
-4.52643e-11
3.87097e-06
-3.02663e-11
3.87097e-06
-1.56597e-11
3.87096e-06
-6.48772e-13
3.87096e-06
1.43695e-11
3.87095e-06
2.9006e-11
3.87094e-06
4.28822e-11
3.87094e-06
5.56462e-11
3.87093e-06
6.69699e-11
3.87092e-06
7.65587e-11
3.87091e-06
8.41696e-11
3.87091e-06
8.96018e-11
3.8709e-06
9.27168e-11
3.87089e-06
9.34341e-11
3.87089e-06
9.17351e-11
3.87089e-06
8.76609e-11
3.87088e-06
8.13172e-11
3.87088e-06
7.28666e-11
3.87088e-06
6.25281e-11
3.87088e-06
5.05663e-11
3.87088e-06
3.72902e-11
3.87089e-06
2.30455e-11
3.87089e-06
8.20062e-12
3.87089e-06
-6.8567e-12
3.8709e-06
-2.17375e-11
3.87091e-06
-3.60546e-11
3.87091e-06
-4.94326e-11
3.87092e-06
-6.15291e-11
3.87093e-06
-7.20276e-11
3.87094e-06
-8.06595e-11
3.87094e-06
-8.72041e-11
3.87095e-06
-9.1489e-11
3.87096e-06
-9.34072e-11
3.87096e-06
-9.2908e-11
3.87097e-06
-9.00029e-11
3.87097e-06
-8.4769e-11
3.87097e-06
-7.73353e-11
3.87097e-06
-6.7901e-11
3.87097e-06
-5.66886e-11
-4.40405e-11
4.11123e-06
-2.68319e-11
4.11122e-06
-1.13337e-11
4.11122e-06
4.45516e-12
4.11121e-06
2.012e-11
4.11121e-06
3.52544e-11
4.1112e-06
4.9467e-11
4.11119e-06
6.23992e-11
4.11118e-06
7.37173e-11
4.11118e-06
8.31261e-11
4.11117e-06
9.03875e-11
4.11117e-06
9.53083e-11
4.11116e-06
9.77635e-11
4.11116e-06
9.76894e-11
4.11115e-06
9.50882e-11
4.11115e-06
9.00242e-11
4.11115e-06
8.26293e-11
4.11115e-06
7.30931e-11
4.11115e-06
6.16635e-11
4.11115e-06
4.86329e-11
4.11116e-06
3.43382e-11
4.11116e-06
1.91523e-11
4.11116e-06
3.4676e-12
4.11117e-06
-1.23069e-11
4.11118e-06
-2.77643e-11
4.11118e-06
-4.25018e-11
4.11119e-06
-5.6132e-11
4.1112e-06
-6.83088e-11
4.1112e-06
-7.87112e-11
4.11121e-06
-8.70748e-11
4.11121e-06
-9.3185e-11
4.11122e-06
-9.68801e-11
4.11122e-06
-9.80686e-11
4.11123e-06
-9.67186e-11
4.11123e-06
-9.28633e-11
4.11123e-06
-8.66054e-11
4.11123e-06
-7.80991e-11
4.11123e-06
-6.75734e-11
4.11123e-06
-5.52792e-11
-4.15861e-11
4.34541e-06
-2.25868e-11
4.34541e-06
-6.45249e-12
4.3454e-06
9.84486e-12
4.3454e-06
2.5879e-11
4.34539e-06
4.12349e-11
4.34538e-06
5.5517e-11
4.34538e-06
6.83619e-11
4.34537e-06
7.94387e-11
4.34537e-06
8.84584e-11
4.34536e-06
9.51918e-11
4.34536e-06
9.94603e-11
4.34536e-06
1.01155e-10
4.34535e-06
1.00232e-10
4.34535e-06
9.67159e-11
4.34535e-06
9.0694e-11
4.34535e-06
8.23235e-11
4.34535e-06
7.18196e-11
4.34535e-06
5.94548e-11
4.34536e-06
4.55467e-11
4.34536e-06
3.04552e-11
4.34537e-06
1.45736e-11
4.34537e-06
-1.68769e-12
4.34538e-06
-1.79056e-11
4.34538e-06
-3.3661e-11
4.34539e-06
-4.85438e-11
4.34539e-06
-6.21646e-11
4.3454e-06
-7.41745e-11
4.34541e-06
-8.42596e-11
4.34541e-06
-9.21612e-11
4.34542e-06
-9.76772e-11
4.34542e-06
-1.00662e-10
4.34542e-06
-1.01041e-10
4.34542e-06
-9.88047e-11
4.34543e-06
-9.40095e-11
4.34543e-06
-8.67811e-11
4.34543e-06
-7.73019e-11
4.34542e-06
-6.58229e-11
4.34542e-06
-5.26233e-11
-3.80943e-11
4.57447e-06
-1.78189e-11
4.57447e-06
-1.32641e-12
4.57446e-06
1.51965e-11
4.57446e-06
3.13189e-11
4.57445e-06
4.66228e-11
4.57445e-06
6.07135e-11
4.57444e-06
7.32336e-11
4.57444e-06
8.38597e-11
4.57443e-06
9.23144e-11
4.57443e-06
9.83829e-11
4.57443e-06
1.01903e-10
4.57443e-06
1.02786e-10
4.57443e-06
1.01008e-10
4.57443e-06
9.66161e-11
4.57443e-06
8.97209e-11
4.57443e-06
8.05021e-11
4.57443e-06
6.9197e-11
4.57444e-06
5.60993e-11
4.57444e-06
4.15453e-11
4.57444e-06
2.5912e-11
4.57445e-06
9.60672e-12
4.57445e-06
-6.94956e-12
4.57446e-06
-2.33262e-11
4.57446e-06
-3.91001e-11
4.57447e-06
-5.38604e-11
4.57448e-06
-6.72202e-11
4.57448e-06
-7.88392e-11
4.57448e-06
-8.84121e-11
4.57449e-06
-9.56947e-11
4.57449e-06
-1.005e-10
4.57449e-06
-1.02701e-10
4.57449e-06
-1.02243e-10
4.57449e-06
-9.9138e-11
4.57449e-06
-9.34649e-11
4.57449e-06
-8.53731e-11
4.57449e-06
-7.50662e-11
4.57449e-06
-6.28186e-11
4.57448e-06
-4.89305e-11
-3.38081e-11
4.7993e-06
-1.28466e-11
4.7993e-06
3.7198e-12
4.79929e-06
2.0186e-11
4.79929e-06
3.61232e-11
4.79928e-06
5.11188e-11
4.79928e-06
6.47867e-11
4.79928e-06
7.6778e-11
4.79927e-06
8.67833e-11
4.79927e-06
9.45415e-11
4.79927e-06
9.98547e-11
4.79927e-06
1.02582e-10
4.79927e-06
1.02653e-10
4.79927e-06
1.00067e-10
4.79927e-06
9.48905e-11
4.79928e-06
8.72555e-11
4.79928e-06
7.73605e-11
4.79928e-06
6.54607e-11
4.79929e-06
5.18648e-11
4.79929e-06
3.6923e-11
4.7993e-06
2.10222e-11
4.7993e-06
4.57628e-12
4.79931e-06
-1.19902e-11
4.79931e-06
-2.82466e-11
4.79932e-06
-4.37722e-11
4.79932e-06
-5.81633e-11
4.79932e-06
-7.1044e-11
4.79933e-06
-8.20838e-11
4.79933e-06
-9.09946e-11
4.79933e-06
-9.75477e-11
4.79933e-06
-1.01575e-10
4.79933e-06
-1.0297e-10
4.79933e-06
-1.01699e-10
4.79933e-06
-9.77946e-11
4.79933e-06
-9.13574e-11
4.79933e-06
-8.25556e-11
4.79932e-06
-7.16134e-11
4.79932e-06
-5.88194e-11
4.79931e-06
-4.44918e-11
-2.90442e-11
5.0206e-06
-7.99921e-12
5.02059e-06
8.36624e-12
5.02059e-06
2.45126e-11
5.02058e-06
4.00195e-11
5.02058e-06
5.44842e-11
5.02058e-06
6.75339e-11
5.02058e-06
7.88363e-11
5.02058e-06
8.80991e-11
5.02057e-06
9.50805e-11
5.02058e-06
9.96027e-11
5.02058e-06
1.01544e-10
5.02058e-06
1.00857e-10
5.02058e-06
9.75585e-11
5.02058e-06
9.17342e-11
5.02059e-06
8.35328e-11
5.02059e-06
7.31679e-11
5.0206e-06
6.09069e-11
5.0206e-06
4.70681e-11
5.02061e-06
3.20078e-11
5.02061e-06
1.61163e-11
5.02062e-06
-1.93106e-13
5.02062e-06
-1.64995e-11
5.02062e-06
-3.23789e-11
5.02063e-06
-4.74205e-11
5.02063e-06
-6.1233e-11
5.02063e-06
-7.34551e-11
5.02063e-06
-8.37746e-11
5.02064e-06
-9.19211e-11
5.02064e-06
-9.76864e-11
5.02064e-06
-1.00922e-10
5.02063e-06
-1.01543e-10
5.02063e-06
-9.95339e-11
5.02063e-06
-9.49477e-11
5.02063e-06
-8.7902e-11
5.02062e-06
-7.85812e-11
5.02062e-06
-6.72228e-11
5.02061e-06
-5.41274e-11
5.02061e-06
-3.96226e-11
-2.41221e-11
5.23902e-06
-3.57745e-12
5.23902e-06
1.23386e-11
5.23901e-06
2.79333e-11
5.23901e-06
4.28005e-11
5.23901e-06
5.65546e-11
5.23901e-06
6.88413e-11
5.23901e-06
7.93459e-11
5.23901e-06
8.77973e-11
5.23901e-06
9.39748e-11
5.23901e-06
9.77208e-11
5.23901e-06
9.8935e-11
5.23902e-06
9.75875e-11
5.23902e-06
9.37129e-11
5.23902e-06
8.7412e-11
5.23903e-06
7.88461e-11
5.23903e-06
6.8238e-11
5.23904e-06
5.58617e-11
5.23904e-06
4.20383e-11
5.23905e-06
2.71243e-11
5.23905e-06
1.15059e-11
5.23906e-06
-4.41082e-12
5.23906e-06
-2.02151e-11
5.23906e-06
-3.5496e-11
5.23907e-06
-4.9858e-11
5.23907e-06
-6.29278e-11
5.23907e-06
-7.43646e-11
5.23907e-06
-8.38746e-11
5.23907e-06
-9.12099e-11
5.23907e-06
-9.6182e-11
5.23906e-06
-9.86635e-11
5.23906e-06
-9.85879e-11
5.23906e-06
-9.59596e-11
5.23905e-06
-9.08464e-11
5.23905e-06
-8.33802e-11
5.23904e-06
-7.37558e-11
5.23904e-06
-6.22202e-11
5.23903e-06
-4.90769e-11
5.23903e-06
-3.46581e-11
-1.93702e-11
5.45495e-06
1.67756e-13
5.45494e-06
1.54216e-11
5.45494e-06
3.02761e-11
5.45494e-06
4.43434e-11
5.45494e-06
5.72578e-11
5.45494e-06
6.86863e-11
5.45494e-06
7.83368e-11
5.45494e-06
8.59596e-11
5.45495e-06
9.13559e-11
5.45495e-06
9.4388e-11
5.45495e-06
9.49743e-11
5.45496e-06
9.31012e-11
5.45496e-06
8.88168e-11
5.45497e-06
8.22329e-11
5.45497e-06
7.35181e-11
5.45498e-06
6.28993e-11
5.45498e-06
5.06507e-11
5.45499e-06
3.70904e-11
5.45499e-06
2.25678e-11
5.455e-06
7.45922e-12
5.455e-06
-7.84291e-12
5.455e-06
-2.29435e-11
5.45501e-06
-3.74498e-11
5.45501e-06
-5.09866e-11
5.45501e-06
-6.32021e-11
5.45501e-06
-7.37771e-11
5.455e-06
-8.24412e-11
5.455e-06
-8.89675e-11
5.455e-06
-9.31894e-11
5.455e-06
-9.49982e-11
5.45499e-06
-9.43448e-11
5.45499e-06
-9.12487e-11
5.45498e-06
-8.57895e-11
5.45498e-06
-7.8108e-11
5.45497e-06
-6.84051e-11
5.45497e-06
-5.69293e-11
5.45496e-06
-4.39838e-11
5.45496e-06
-2.98971e-11
-1.50612e-11
5.66894e-06
3.05926e-12
5.66894e-06
1.7485e-11
5.66894e-06
3.14582e-11
5.66894e-06
4.4614e-11
5.66894e-06
5.66104e-11
5.66894e-06
6.71385e-11
5.66895e-06
7.59277e-11
5.66895e-06
8.27513e-11
5.66895e-06
8.7431e-11
5.66896e-06
8.98475e-11
5.66896e-06
8.99357e-11
5.66897e-06
8.76948e-11
5.66897e-06
8.31827e-11
5.66898e-06
7.65166e-11
5.66898e-06
6.7868e-11
5.66899e-06
5.74618e-11
5.669e-06
4.5567e-11
5.669e-06
3.2492e-11
5.669e-06
1.85744e-11
5.66901e-06
4.17466e-12
5.66901e-06
-1.03336e-11
5.66901e-06
-2.45754e-11
5.66901e-06
-3.81806e-11
5.66901e-06
-5.07972e-11
5.66901e-06
-6.20974e-11
5.66901e-06
-7.17869e-11
5.66901e-06
-7.96165e-11
5.669e-06
-8.53825e-11
5.669e-06
-8.89365e-11
5.66899e-06
-9.01875e-11
5.66899e-06
-8.91012e-11
5.66898e-06
-8.57078e-11
5.66898e-06
-8.00948e-11
5.66897e-06
-7.24073e-11
5.66897e-06
-6.28458e-11
5.66896e-06
-5.16565e-11
5.66896e-06
-3.9134e-11
5.66895e-06
-2.5598e-11
-1.14211e-11
5.88145e-06
5.00103e-12
5.88145e-06
1.84794e-11
5.88145e-06
3.14804e-11
5.88145e-06
4.36641e-11
5.88145e-06
5.47132e-11
5.88145e-06
6.43427e-11
5.88146e-06
7.23056e-11
5.88146e-06
7.83961e-11
5.88147e-06
8.24554e-11
5.88147e-06
8.438e-11
5.88148e-06
8.41177e-11
5.88148e-06
8.1677e-11
5.88149e-06
7.71206e-11
5.8815e-06
7.05674e-11
5.8815e-06
6.21859e-11
5.88151e-06
5.2194e-11
5.88151e-06
4.08502e-11
5.88152e-06
2.84487e-11
5.88152e-06
1.53096e-11
5.88152e-06
1.77298e-12
5.88152e-06
-1.18098e-11
5.88152e-06
-2.50877e-11
5.88152e-06
-3.77156e-11
5.88152e-06
-4.9367e-11
5.88152e-06
-5.97392e-11
5.88152e-06
-6.85616e-11
5.88151e-06
-7.56082e-11
5.88151e-06
-8.06949e-11
5.8815e-06
-8.36917e-11
5.8815e-06
-8.45214e-11
5.88149e-06
-8.31607e-11
5.88148e-06
-7.96467e-11
5.88148e-06
-7.407e-11
5.88147e-06
-6.65747e-11
5.88147e-06
-5.73566e-11
5.88146e-06
-4.66526e-11
5.88146e-06
-3.47454e-11
5.88145e-06
-2.194e-11
-8.58446e-12
6.09271e-06
5.9795e-12
6.09271e-06
1.84405e-11
6.09271e-06
3.04247e-11
6.09271e-06
4.16188e-11
6.09271e-06
5.17318e-11
6.09272e-06
6.05028e-11
6.09272e-06
6.77061e-11
6.09273e-06
7.31558e-11
6.09273e-06
7.67098e-11
6.09274e-06
7.82774e-11
6.09275e-06
7.78163e-11
6.09275e-06
7.53398e-11
6.09276e-06
7.09119e-11
6.09276e-06
6.46479e-11
6.09277e-06
5.67091e-11
6.09277e-06
4.7302e-11
6.09278e-06
3.66699e-11
6.09278e-06
2.50883e-11
6.09278e-06
1.28565e-11
6.09279e-06
2.91068e-13
6.09279e-06
-1.22821e-11
6.09279e-06
-2.45379e-11
6.09278e-06
-3.61579e-11
6.09278e-06
-4.68418e-11
6.09278e-06
-5.63118e-11
6.09277e-06
-6.43219e-11
6.09277e-06
-7.06657e-11
6.09276e-06
-7.51783e-11
6.09276e-06
-7.77437e-11
6.09275e-06
-7.82961e-11
6.09274e-06
-7.68195e-11
6.09274e-06
-7.33537e-11
6.09273e-06
-6.79883e-11
6.09273e-06
-6.08621e-11
6.09272e-06
-5.21607e-11
6.09272e-06
-4.21088e-11
6.09271e-06
-3.0971e-11
6.09271e-06
-1.9034e-11
-6.61845e-12
6.30298e-06
6.05401e-12
6.30299e-06
1.74687e-11
6.30299e-06
2.8432e-11
6.30299e-06
3.86572e-11
6.30299e-06
4.78779e-11
6.303e-06
5.58562e-11
6.303e-06
6.23871e-11
6.30301e-06
6.73019e-11
6.30302e-06
7.04725e-11
6.30302e-06
7.18182e-11
6.30303e-06
7.13023e-11
6.30304e-06
6.89398e-11
6.30304e-06
6.47917e-11
6.30305e-06
5.8966e-11
6.30305e-06
5.16128e-11
6.30306e-06
4.29234e-11
6.30306e-06
3.31226e-11
6.30306e-06
2.24645e-11
6.30307e-06
1.12242e-11
6.30307e-06
-3.07363e-13
6.30307e-06
-1.1831e-11
6.30306e-06
-2.30489e-11
6.30306e-06
-3.36696e-11
6.30306e-06
-4.34185e-11
6.30305e-06
-5.20426e-11
6.30305e-06
-5.93172e-11
6.30304e-06
-6.50556e-11
6.30304e-06
-6.91081e-11
6.30303e-06
-7.1371e-11
6.30302e-06
-7.1786e-11
6.30302e-06
-7.0341e-11
6.30301e-06
-6.70745e-11
6.30301e-06
-6.2071e-11
6.303e-06
-5.54597e-11
6.303e-06
-4.74131e-11
6.30299e-06
-3.81388e-11
6.30299e-06
-2.78815e-11
6.30299e-06
-1.69054e-11
-5.5021e-12
6.51258e-06
5.34165e-12
6.51258e-06
1.57186e-11
6.51259e-06
2.56885e-11
6.51259e-06
3.49912e-11
6.51259e-06
4.33846e-11
6.5126e-06
5.06525e-11
6.5126e-06
5.66074e-11
6.51261e-06
6.10956e-11
6.51262e-06
6.40005e-11
6.51262e-06
6.52478e-11
6.51263e-06
6.48039e-11
6.51264e-06
6.26816e-11
6.51264e-06
5.89359e-11
6.51265e-06
5.36643e-11
6.51265e-06
4.70027e-11
6.51266e-06
3.91244e-11
6.51266e-06
3.02332e-11
6.51266e-06
2.05595e-11
6.51266e-06
1.03532e-11
6.51266e-06
-1.21501e-13
6.51266e-06
-1.05931e-11
6.51266e-06
-2.07909e-11
6.51265e-06
-3.045e-11
6.51265e-06
-3.93208e-11
6.51265e-06
-4.7173e-11
6.51264e-06
-5.38025e-11
6.51263e-06
-5.90385e-11
6.51263e-06
-6.2745e-11
6.51262e-06
-6.48267e-11
6.51261e-06
-6.52299e-11
6.51261e-06
-6.3943e-11
6.5126e-06
-6.10004e-11
6.5126e-06
-5.6478e-11
6.51259e-06
-5.04929e-11
6.51259e-06
-4.3201e-11
6.51258e-06
-3.47908e-11
6.51258e-06
-2.54837e-11
6.51258e-06
-1.55202e-11
-5.16235e-12
6.72169e-06
3.9987e-12
6.72169e-06
1.33721e-11
6.7217e-06
2.23989e-11
6.7217e-06
3.08438e-11
6.72171e-06
3.84871e-11
6.72171e-06
4.51314e-11
6.72172e-06
5.06059e-11
6.72172e-06
5.47691e-11
6.72173e-06
5.75128e-11
6.72174e-06
5.8767e-11
6.72174e-06
5.84979e-11
6.72175e-06
5.67138e-11
6.72176e-06
5.34608e-11
6.72176e-06
4.88238e-11
6.72176e-06
4.29222e-11
6.72177e-06
3.59098e-11
6.72177e-06
2.79678e-11
6.72177e-06
1.93022e-11
6.72177e-06
1.01365e-11
6.72177e-06
7.08055e-13
6.72177e-06
-8.7387e-12
6.72177e-06
-1.79596e-11
6.72176e-06
-2.67152e-11
6.72176e-06
-3.47793e-11
6.72175e-06
-4.19425e-11
6.72175e-06
-4.80186e-11
6.72174e-06
-5.28512e-11
6.72173e-06
-5.63147e-11
6.72173e-06
-5.83202e-11
6.72172e-06
-5.88157e-11
6.72171e-06
-5.77875e-11
6.72171e-06
-5.52629e-11
6.7217e-06
-5.13071e-11
6.7217e-06
-4.60224e-11
6.7217e-06
-3.95466e-11
6.72169e-06
-3.20469e-11
6.72169e-06
-2.3721e-11
6.72169e-06
-1.47841e-11
-5.46903e-12
6.93049e-06
2.20072e-12
6.93049e-06
1.06245e-11
6.93049e-06
1.8772e-11
6.9305e-06
2.64312e-11
6.9305e-06
3.34033e-11
6.93051e-06
3.95085e-11
6.93051e-06
4.45895e-11
6.93052e-06
4.8515e-11
6.93053e-06
5.1183e-11
6.93053e-06
5.25254e-11
6.93054e-06
5.25064e-11
6.93054e-06
5.11275e-11
6.93055e-06
4.84245e-11
6.93055e-06
4.44679e-11
6.93056e-06
3.93597e-11
6.93056e-06
3.3233e-11
6.93056e-06
2.6246e-11
6.93056e-06
1.858e-11
6.93056e-06
1.04328e-11
6.93056e-06
2.01524e-12
6.93056e-06
-6.45445e-12
6.93055e-06
-1.47573e-11
6.93055e-06
-2.2678e-11
6.93055e-06
-3.00117e-11
6.93054e-06
-3.65682e-11
6.93053e-06
-4.21771e-11
6.93053e-06
-4.66939e-11
6.93052e-06
-5.00013e-11
6.93052e-06
-5.20142e-11
6.93051e-06
-5.26804e-11
6.9305e-06
-5.19819e-11
6.9305e-06
-4.99374e-11
6.93049e-06
-4.65996e-11
6.93049e-06
-4.2055e-11
6.93049e-06
-3.64217e-11
6.93048e-06
-2.98458e-11
6.93048e-06
-2.24999e-11
6.93048e-06
-1.45742e-11
-6.27394e-12
7.13918e-06
1.25679e-13
7.13919e-06
7.66293e-12
7.13919e-06
1.50002e-11
7.13919e-06
2.19471e-11
7.1392e-06
2.83231e-11
7.1392e-06
3.39639e-11
7.13921e-06
3.87241e-11
7.13922e-06
4.24809e-11
7.13922e-06
4.51366e-11
7.13923e-06
4.66233e-11
7.13923e-06
4.69015e-11
7.13924e-06
4.59651e-11
7.13924e-06
4.38383e-11
7.13925e-06
4.05767e-11
7.13925e-06
3.62643e-11
7.13925e-06
3.10135e-11
7.13925e-06
2.49601e-11
7.13925e-06
1.82609e-11
7.13925e-06
1.10888e-11
7.13925e-06
3.62942e-12
7.13925e-06
-3.92392e-12
7.13925e-06
-1.1376e-11
7.13924e-06
-1.85335e-11
7.13924e-06
-2.52113e-11
7.13923e-06
-3.12363e-11
7.13923e-06
-3.64519e-11
7.13922e-06
-4.07239e-11
7.13921e-06
-4.3941e-11
7.13921e-06
-4.60208e-11
7.1392e-06
-4.69092e-11
7.1392e-06
-4.65825e-11
7.13919e-06
-4.50496e-11
7.13919e-06
-4.235e-11
7.13918e-06
-3.85535e-11
7.13918e-06
-3.37589e-11
7.13918e-06
-2.80904e-11
7.13918e-06
-2.16969e-11
7.13918e-06
-1.47436e-11
-7.40985e-12
7.34791e-06
-2.06102e-12
7.34791e-06
4.65744e-12
7.34791e-06
1.12531e-11
7.34792e-06
1.75553e-11
7.34792e-06
2.34007e-11
7.34793e-06
2.86386e-11
7.34793e-06
3.31339e-11
7.34794e-06
3.67706e-11
7.34795e-06
3.94543e-11
7.34795e-06
4.11161e-11
7.34796e-06
4.17123e-11
7.34796e-06
4.12282e-11
7.34796e-06
3.96764e-11
7.34797e-06
3.70976e-11
7.34797e-06
3.35581e-11
7.34797e-06
2.91504e-11
7.34797e-06
2.39882e-11
7.34797e-06
1.82054e-11
7.34797e-06
1.19511e-11
7.34797e-06
5.38737e-12
7.34797e-06
-1.31589e-12
7.34797e-06
-7.98536e-12
7.34796e-06
-1.44481e-11
7.34796e-06
-2.05371e-11
7.34795e-06
-2.60943e-11
7.34795e-06
-3.09756e-11
7.34794e-06
-3.5055e-11
7.34793e-06
-3.82268e-11
7.34793e-06
-4.0409e-11
7.34792e-06
-4.15452e-11
7.34792e-06
-4.16052e-11
7.34791e-06
-4.0588e-11
7.34791e-06
-3.85197e-11
7.34791e-06
-3.54537e-11
7.3479e-06
-3.14698e-11
7.3479e-06
-2.66713e-11
7.3479e-06
-2.11839e-11
7.3479e-06
-1.51492e-11
-8.72302e-12
7.55677e-06
-4.2156e-12
7.55677e-06
1.74942e-12
7.55677e-06
7.6669e-12
7.55678e-06
1.3384e-11
7.55678e-06
1.87526e-11
7.55679e-06
2.36341e-11
7.55679e-06
2.79028e-11
7.5568e-06
3.14485e-11
7.5568e-06
3.41791e-11
7.55681e-06
3.60245e-11
7.55681e-06
3.69362e-11
7.55682e-06
3.68913e-11
7.55682e-06
3.58911e-11
7.55682e-06
3.39618e-11
7.55683e-06
3.11531e-11
7.55683e-06
2.75384e-11
7.55683e-06
2.32109e-11
7.55683e-06
1.8283e-11
7.55683e-06
1.28816e-11
7.55683e-06
7.14655e-12
7.55682e-06
1.22645e-12
7.55682e-06
-4.72565e-12
7.55682e-06
-1.05555e-11
7.55681e-06
-1.61124e-11
7.55681e-06
-2.12521e-11
7.5568e-06
-2.58414e-11
7.5568e-06
-2.97618e-11
7.55679e-06
-3.29116e-11
7.55679e-06
-3.52096e-11
7.55678e-06
-3.65963e-11
7.55678e-06
-3.70351e-11
7.55677e-06
-3.6515e-11
7.55677e-06
-3.50493e-11
7.55677e-06
-3.26758e-11
7.55677e-06
-2.94561e-11
7.55676e-06
-2.54737e-11
7.55676e-06
-2.08329e-11
7.55676e-06
-1.56532e-11
-1.00686e-11
7.76578e-06
-6.22229e-12
7.76578e-06
-9.49036e-13
7.76578e-06
4.34635e-12
7.76579e-06
9.52747e-12
7.76579e-06
1.44601e-11
7.7658e-06
1.90171e-11
7.7658e-06