/*--------------------------------*- C++ -*----------------------------------*\
| =========                 |                                                 |
| \\      /  F ield         | OpenFOAM: The Open Source CFD Toolbox           |
|  \\    /   O peration     | Version:  4.x                                   |
|   \\  /    A nd           | Web:      www.OpenFOAM.org                      |
|    \\/     M anipulation  |                                                 |
\*---------------------------------------------------------------------------*/
FoamFile
{
    version     2.0;
    format      ascii;
    class       volVectorField;
    location    "6000";
    object      U;
}
// * * * * * * * * * * * * * * * * * * * * * * * * * * * * * * * * * * * * * //

dimensions      [0 1 -1 0 0 0 0];

internalField   nonuniform List<vector> 
6552
(
(0.00161726 -5.51672e-10 0)
(0.00161727 -4.62129e-10 0)
(0.00161728 -4.23033e-10 0)
(0.00161729 -3.71627e-10 0)
(0.0016173 -3.15916e-10 0)
(0.0016173 -2.60527e-10 0)
(0.0016173 -1.93458e-10 0)
(0.0016173 -1.18785e-10 0)
(0.0016173 -4.54382e-11 0)
(0.0016173 3.48557e-11 0)
(0.00161729 1.09504e-10 0)
(0.00161728 1.80885e-10 0)
(0.00161727 2.47733e-10 0)
(0.00161726 3.10163e-10 0)
(0.00161725 3.64012e-10 0)
(0.00161723 4.0765e-10 0)
(0.00161722 4.40694e-10 0)
(0.00161721 4.65544e-10 0)
(0.00161719 4.77349e-10 0)
(0.00161718 4.73373e-10 0)
(0.00161717 4.60599e-10 0)
(0.00161716 4.32403e-10 0)
(0.00161715 3.97632e-10 0)
(0.00161714 3.47678e-10 0)
(0.00161714 2.8891e-10 0)
(0.00161713 2.29454e-10 0)
(0.00161713 1.56256e-10 0)
(0.00161713 8.5502e-11 0)
(0.00161714 9.52178e-12 0)
(0.00161714 -6.98752e-11 0)
(0.00161715 -1.43657e-10 0)
(0.00161716 -2.16944e-10 0)
(0.00161717 -2.83326e-10 0)
(0.00161718 -3.39488e-10 0)
(0.00161719 -3.93254e-10 0)
(0.00161721 -4.23468e-10 0)
(0.00161722 -4.5621e-10 0)
(0.00161724 -4.62803e-10 0)
(0.00161725 -4.56017e-10 0)
(0.00487192 -4.85732e-09 0)
(0.00487194 -4.25728e-09 0)
(0.00487197 -3.62718e-09 0)
(0.00487199 -2.88054e-09 0)
(0.004872 -2.06888e-09 0)
(0.00487201 -1.21904e-09 0)
(0.00487201 -3.46132e-10 0)
(0.004872 5.40398e-10 0)
(0.00487199 1.40572e-09 0)
(0.00487198 2.24054e-09 0)
(0.00487195 3.01146e-09 0)
(0.00487193 3.70431e-09 0)
(0.0048719 4.29881e-09 0)
(0.00487187 4.78685e-09 0)
(0.00487183 5.15318e-09 0)
(0.00487179 5.38544e-09 0)
(0.00487176 5.47814e-09 0)
(0.00487172 5.43283e-09 0)
(0.00487168 5.25069e-09 0)
(0.00487165 4.92532e-09 0)
(0.00487162 4.47718e-09 0)
(0.0048716 3.90517e-09 0)
(0.00487158 3.24075e-09 0)
(0.00487156 2.48341e-09 0)
(0.00487155 1.6586e-09 0)
(0.00487155 7.98984e-10 0)
(0.00487155 -8.62303e-11 0)
(0.00487156 -9.61275e-10 0)
(0.00487157 -1.81156e-09 0)
(0.00487159 -2.61992e-09 0)
(0.00487161 -3.35742e-09 0)
(0.00487164 -4.01169e-09 0)
(0.00487167 -4.56258e-09 0)
(0.0048717 -4.98946e-09 0)
(0.00487174 -5.29925e-09 0)
(0.00487178 -5.44852e-09 0)
(0.00487181 -5.47908e-09 0)
(0.00487185 -5.3428e-09 0)
(0.00487188 -5.06486e-09 0)
(0.00819467 -1.20834e-08 0)
(0.00819471 -1.04813e-08 0)
(0.00819474 -8.63364e-09 0)
(0.00819476 -6.51613e-09 0)
(0.00819478 -4.23491e-09 0)
(0.00819478 -1.86564e-09 0)
(0.00819478 5.28507e-10 0)
(0.00819477 2.90893e-09 0)
(0.00819475 5.20524e-09 0)
(0.00819472 7.36964e-09 0)
(0.00819468 9.3374e-09 0)
(0.00819464 1.10643e-08 0)
(0.00819459 1.25012e-08 0)
(0.00819454 1.36208e-08 0)
(0.00819448 1.43935e-08 0)
(0.00819443 1.47946e-08 0)
(0.00819437 1.4813e-08 0)
(0.00819432 1.44513e-08 0)
(0.00819426 1.3723e-08 0)
(0.00819422 1.26317e-08 0)
(0.00819418 1.12166e-08 0)
(0.00819414 9.50032e-09 0)
(0.00819411 7.54611e-09 0)
(0.00819409 5.38571e-09 0)
(0.00819408 3.07837e-09 0)
(0.00819408 6.98261e-10 0)
(0.00819409 -1.69861e-09 0)
(0.00819411 -4.04154e-09 0)
(0.00819413 -6.27641e-09 0)
(0.00819417 -8.35299e-09 0)
(0.00819421 -1.02126e-08 0)
(0.00819425 -1.18115e-08 0)
(0.0081943 -1.31071e-08 0)
(0.00819436 -1.40572e-08 0)
(0.00819441 -1.4657e-08 0)
(0.00819447 -1.48514e-08 0)
(0.00819452 -1.46851e-08 0)
(0.00819458 -1.41076e-08 0)
(0.00819463 -1.31706e-08 0)
(0.0115888 -2.16236e-08 0)
(0.0115888 -1.84018e-08 0)
(0.0115888 -1.46957e-08 0)
(0.0115889 -1.05508e-08 0)
(0.0115889 -6.13061e-09 0)
(0.0115889 -1.57768e-09 0)
(0.0115889 2.98339e-09 0)
(0.0115889 7.45896e-09 0)
(0.0115888 1.17306e-08 0)
(0.0115888 1.56984e-08 0)
(0.0115887 1.92536e-08 0)
(0.0115887 2.23136e-08 0)
(0.0115886 2.4793e-08 0)
(0.0115885 2.6638e-08 0)
(0.0115885 2.78014e-08 0)
(0.0115884 2.82489e-08 0)
(0.0115883 2.79659e-08 0)
(0.0115883 2.69617e-08 0)
(0.0115882 2.52681e-08 0)
(0.0115881 2.29142e-08 0)
(0.0115881 1.99683e-08 0)
(0.011588 1.64921e-08 0)
(0.011588 1.25937e-08 0)
(0.011588 8.35723e-09 0)
(0.011588 3.89187e-09 0)
(0.011588 -6.68204e-10 0)
(0.011588 -5.20493e-09 0)
(0.011588 -9.59153e-09 0)
(0.0115881 -1.37241e-08 0)
(0.0115881 -1.75026e-08 0)
(0.0115882 -2.08286e-08 0)
(0.0115882 -2.36199e-08 0)
(0.0115883 -2.58037e-08 0)
(0.0115884 -2.73144e-08 0)
(0.0115885 -2.81326e-08 0)
(0.0115885 -2.81957e-08 0)
(0.0115886 -2.75535e-08 0)
(0.0115887 -2.61614e-08 0)
(0.0115887 -2.41118e-08 0)
(0.0150185 -3.25439e-08 0)
(0.0150185 -2.71105e-08 0)
(0.0150186 -2.09489e-08 0)
(0.0150186 -1.41923e-08 0)
(0.0150186 -7.0651e-09 0)
(0.0150186 2.15017e-10 0)
(0.0150186 7.45599e-09 0)
(0.0150185 1.44908e-08 0)
(0.0150185 2.11381e-08 0)
(0.0150184 2.7237e-08 0)
(0.0150184 3.26246e-08 0)
(0.0150183 3.7173e-08 0)
(0.0150182 4.07587e-08 0)
(0.0150181 4.32979e-08 0)
(0.0150181 4.47252e-08 0)
(0.015018 4.50005e-08 0)
(0.0150179 4.41123e-08 0)
(0.0150178 4.20847e-08 0)
(0.0150177 3.89746e-08 0)
(0.0150177 3.48501e-08 0)
(0.0150176 2.98227e-08 0)
(0.0150176 2.4008e-08 0)
(0.0150176 1.75722e-08 0)
(0.0150175 1.0667e-08 0)
(0.0150175 3.46946e-09 0)
(0.0150176 -3.8108e-09 0)
(0.0150176 -1.0983e-08 0)
(0.0150176 -1.78498e-08 0)
(0.0150177 -2.42471e-08 0)
(0.0150177 -3.00155e-08 0)
(0.0150178 -3.50073e-08 0)
(0.0150179 -3.90979e-08 0)
(0.015018 -4.21811e-08 0)
(0.015018 -4.41686e-08 0)
(0.0150181 -4.50272e-08 0)
(0.0150182 -4.46942e-08 0)
(0.0150183 -4.32279e-08 0)
(0.0150184 -4.06012e-08 0)
(0.0150184 -3.69609e-08 0)
(0.018403 -4.40378e-08 0)
(0.0184031 -3.58487e-08 0)
(0.0184031 -2.66988e-08 0)
(0.0184031 -1.68259e-08 0)
(0.0184031 -6.52053e-09 0)
(0.0184031 3.92035e-09 0)
(0.0184031 1.42305e-08 0)
(0.0184031 2.41579e-08 0)
(0.018403 3.34478e-08 0)
(0.0184029 4.18722e-08 0)
(0.0184029 4.92081e-08 0)
(0.0184028 5.52778e-08 0)
(0.0184027 5.99199e-08 0)
(0.0184026 6.30209e-08 0)
(0.0184025 6.44997e-08 0)
(0.0184024 6.43154e-08 0)
(0.0184023 6.24674e-08 0)
(0.0184022 5.90045e-08 0)
(0.0184022 5.40179e-08 0)
(0.0184021 4.7627e-08 0)
(0.018402 4.00002e-08 0)
(0.018402 3.1321e-08 0)
(0.018402 2.18267e-08 0)
(0.018402 1.17509e-08 0)
(0.018402 1.35323e-09 0)
(0.018402 -9.06903e-09 0)
(0.018402 -1.92461e-08 0)
(0.0184021 -2.89003e-08 0)
(0.0184021 -3.77979e-08 0)
(0.0184022 -4.5714e-08 0)
(0.0184023 -5.24456e-08 0)
(0.0184024 -5.7825e-08 0)
(0.0184025 -6.17124e-08 0)
(0.0184026 -6.39994e-08 0)
(0.0184027 -6.46436e-08 0)
(0.0184028 -6.35898e-08 0)
(0.0184028 -6.09122e-08 0)
(0.0184029 -5.66124e-08 0)
(0.018403 -5.09005e-08 0)
(0.0216268 -5.53332e-08 0)
(0.0216269 -4.39412e-08 0)
(0.0216269 -3.13789e-08 0)
(0.0216269 -1.79989e-08 0)
(0.0216269 -4.16561e-09 0)
(0.0216269 9.73873e-09 0)
(0.0216269 2.33658e-08 0)
(0.0216268 3.63744e-08 0)
(0.0216267 4.84311e-08 0)
(0.0216267 5.92379e-08 0)
(0.0216266 6.851e-08 0)
(0.0216265 7.60186e-08 0)
(0.0216264 8.15667e-08 0)
(0.0216263 8.5015e-08 0)
(0.0216262 8.62718e-08 0)
(0.0216261 8.53016e-08 0)
(0.021626 8.21239e-08 0)
(0.0216259 7.68218e-08 0)
(0.0216258 6.95309e-08 0)
(0.0216258 6.04323e-08 0)
(0.0216257 4.97634e-08 0)
(0.0216257 3.77878e-08 0)
(0.0216257 2.48258e-08 0)
(0.0216257 1.12043e-08 0)
(0.0216257 -2.72176e-09 0)
(0.0216257 -1.65627e-08 0)
(0.0216258 -2.9966e-08 0)
(0.0216258 -4.25687e-08 0)
(0.0216259 -5.40613e-08 0)
(0.021626 -6.4151e-08 0)
(0.0216261 -7.25776e-08 0)
(0.0216262 -7.91305e-08 0)
(0.0216263 -8.36395e-08 0)
(0.0216264 -8.59808e-08 0)
(0.0216265 -8.61086e-08 0)
(0.0216266 -8.39844e-08 0)
(0.0216266 -7.97055e-08 0)
(0.0216267 -7.33154e-08 0)
(0.0216268 -6.50942e-08 0)
(0.0245904 -6.57875e-08 0)
(0.0245904 -5.08742e-08 0)
(0.0245904 -3.46147e-08 0)
(0.0245904 -1.7475e-08 0)
(0.0245904 9.72051e-11 0)
(0.0245904 1.7627e-08 0)
(0.0245904 3.46763e-08 0)
(0.0245903 5.08144e-08 0)
(0.0245902 6.56285e-08 0)
(0.0245901 7.87509e-08 0)
(0.0245901 8.98372e-08 0)
(0.02459 9.861e-08 0)
(0.0245899 1.04841e-07 0)
(0.0245898 1.08372e-07 0)
(0.0245897 1.09106e-07 0)
(0.0245896 1.07022e-07 0)
(0.0245895 1.02167e-07 0)
(0.0245894 9.4668e-08 0)
(0.0245893 8.47144e-08 0)
(0.0245893 7.25577e-08 0)
(0.0245892 5.8514e-08 0)
(0.0245892 4.29355e-08 0)
(0.0245892 2.6235e-08 0)
(0.0245892 8.84204e-09 0)
(0.0245892 -8.78883e-09 0)
(0.0245893 -2.61754e-08 0)
(0.0245893 -4.28785e-08 0)
(0.0245894 -5.84485e-08 0)
(0.0245894 -7.24985e-08 0)
(0.0245895 -8.46689e-08 0)
(0.0245896 -9.46442e-08 0)
(0.0245897 -1.02175e-07 0)
(0.0245898 -1.07064e-07 0)
(0.0245899 -1.09179e-07 0)
(0.02459 -1.08479e-07 0)
(0.0245901 -1.04949e-07 0)
(0.0245902 -9.87179e-08 0)
(0.0245903 -8.98816e-08 0)
(0.0245903 -7.87929e-08 0)
(0.0272508 -7.50444e-08 0)
(0.0272508 -5.64248e-08 0)
(0.0272508 -3.63184e-08 0)
(0.0272508 -1.52968e-08 0)
(0.0272508 6.09672e-09 0)
(0.0272508 2.7289e-08 0)
(0.0272507 4.77507e-08 0)
(0.0272507 6.69627e-08 0)
(0.0272506 8.44332e-08 0)
(0.0272505 9.97279e-08 0)
(0.0272504 1.12446e-07 0)
(0.0272503 1.22266e-07 0)
(0.0272502 1.28935e-07 0)
(0.0272501 1.3228e-07 0)
(0.02725 1.3221e-07 0)
(0.0272499 1.28723e-07 0)
(0.0272498 1.21902e-07 0)
(0.0272498 1.11926e-07 0)
(0.0272497 9.90449e-08 0)
(0.0272496 8.35875e-08 0)
(0.0272496 6.59553e-08 0)
(0.0272496 4.65944e-08 0)
(0.0272496 2.60171e-08 0)
(0.0272496 4.7581e-09 0)
(0.0272496 -1.66277e-08 0)
(0.0272497 -3.75651e-08 0)
(0.0272497 -5.75271e-08 0)
(0.0272498 -7.59787e-08 0)
(0.0272499 -9.24579e-08 0)
(0.02725 -1.06543e-07 0)
(0.0272501 -1.17866e-07 0)
(0.0272502 -1.26144e-07 0)
(0.0272503 -1.3116e-07 0)
(0.0272504 -1.32778e-07 0)
(0.0272505 -1.30968e-07 0)
(0.0272505 -1.25747e-07 0)
(0.0272506 -1.17284e-07 0)
(0.0272507 -1.05733e-07 0)
(0.0272508 -9.15212e-08 0)
(0.0296207 -8.23413e-08 0)
(0.0296207 -5.99125e-08 0)
(0.0296207 -3.59105e-08 0)
(0.0296207 -1.10058e-08 0)
(0.0296207 1.41577e-08 0)
(0.0296207 3.89101e-08 0)
(0.0296206 6.26323e-08 0)
(0.0296205 8.472e-08 0)
(0.0296204 1.04606e-07 0)
(0.0296204 1.21796e-07 0)
(0.0296203 1.35838e-07 0)
(0.0296202 1.46377e-07 0)
(0.0296201 1.53141e-07 0)
(0.02962 1.55955e-07 0)
(0.0296199 1.5474e-07 0)
(0.0296198 1.49524e-07 0)
(0.0296197 1.40436e-07 0)
(0.0296197 1.27711e-07 0)
(0.0296196 1.11671e-07 0)
(0.0296196 9.27253e-08 0)
(0.0296195 7.13673e-08 0)
(0.0296195 4.81405e-08 0)
(0.0296195 2.36594e-08 0)
(0.0296196 -1.43841e-09 0)
(0.0296196 -2.64995e-08 0)
(0.0296196 -5.0856e-08 0)
(0.0296197 -7.38943e-08 0)
(0.0296198 -9.50001e-08 0)
(0.0296199 -1.13642e-07 0)
(0.02962 -1.29344e-07 0)
(0.0296201 -1.41693e-07 0)
(0.0296201 -1.50381e-07 0)
(0.0296202 -1.55179e-07 0)
(0.0296203 -1.55958e-07 0)
(0.0296204 -1.52708e-07 0)
(0.0296205 -1.45485e-07 0)
(0.0296206 -1.34507e-07 0)
(0.0296206 -1.19992e-07 0)
(0.0296207 -1.02448e-07 0)
(0.0317423 -8.71453e-08 0)
(0.0317424 -6.08947e-08 0)
(0.0317423 -3.30488e-08 0)
(0.0317423 -4.37378e-09 0)
(0.0317423 2.43872e-08 0)
(0.0317422 5.2474e-08 0)
(0.0317422 7.91828e-08 0)
(0.0317421 1.03831e-07 0)
(0.031742 1.25783e-07 0)
(0.0317419 1.4449e-07 0)
(0.0317418 1.59461e-07 0)
(0.0317417 1.70317e-07 0)
(0.0317416 1.76777e-07 0)
(0.0317416 1.78675e-07 0)
(0.0317415 1.75954e-07 0)
(0.0317414 1.68682e-07 0)
(0.0317413 1.57042e-07 0)
(0.0317413 1.41333e-07 0)
(0.0317412 1.21956e-07 0)
(0.0317412 9.94061e-08 0)
(0.0317412 7.42701e-08 0)
(0.0317412 4.71915e-08 0)
(0.0317412 1.88857e-08 0)
(0.0317412 -9.91131e-09 0)
(0.0317413 -3.84505e-08 0)
(0.0317413 -6.59749e-08 0)
(0.0317414 -9.17899e-08 0)
(0.0317415 -1.1521e-07 0)
(0.0317416 -1.35645e-07 0)
(0.0317417 -1.52569e-07 0)
(0.0317418 -1.65542e-07 0)
(0.0317419 -1.74235e-07 0)
(0.0317419 -1.78422e-07 0)
(0.031742 -1.77988e-07 0)
(0.0317421 -1.72953e-07 0)
(0.0317422 -1.63422e-07 0)
(0.0317422 -1.4967e-07 0)
(0.0317423 -1.31986e-07 0)
(0.0317423 -1.10964e-07 0)
(0.0336537 -8.8792e-08 0)
(0.0336537 -5.88024e-08 0)
(0.0336536 -2.72775e-08 0)
(0.0336536 4.92733e-09 0)
(0.0336536 3.69769e-08 0)
(0.0336535 6.80303e-08 0)
(0.0336534 9.73078e-08 0)
(0.0336534 1.24058e-07 0)
(0.0336533 1.47589e-07 0)
(0.0336532 1.67311e-07 0)
(0.0336531 1.82706e-07 0)
(0.033653 1.93381e-07 0)
(0.0336529 1.99062e-07 0)
(0.0336529 1.99601e-07 0)
(0.0336528 1.94979e-07 0)
(0.0336527 1.85312e-07 0)
(0.0336527 1.70845e-07 0)
(0.0336526 1.51952e-07 0)
(0.0336526 1.29115e-07 0)
(0.0336526 1.02919e-07 0)
(0.0336526 7.40469e-08 0)
(0.0336526 4.32406e-08 0)
(0.0336526 1.13119e-08 0)
(0.0336527 -2.09117e-08 0)
(0.0336527 -5.25921e-08 0)
(0.0336528 -8.28914e-08 0)
(0.0336529 -1.11044e-07 0)
(0.0336529 -1.36303e-07 0)
(0.033653 -1.58032e-07 0)
(0.0336531 -1.75671e-07 0)
(0.0336532 -1.8876e-07 0)
(0.0336533 -1.96969e-07 0)
(0.0336534 -2.00082e-07 0)
(0.0336534 -1.98013e-07 0)
(0.0336535 -1.90825e-07 0)
(0.0336536 -1.78679e-07 0)
(0.0336536 -1.61914e-07 0)
(0.0336536 -1.40901e-07 0)
(0.0336537 -1.16319e-07 0)
(0.035382 -8.71695e-08 0)
(0.035382 -5.36736e-08 0)
(0.035382 -1.87817e-08 0)
(0.0353819 1.65709e-08 0)
(0.0353819 5.14671e-08 0)
(0.0353818 8.49967e-08 0)
(0.0353817 1.16316e-07 0)
(0.0353817 1.44619e-07 0)
(0.0353816 1.69173e-07 0)
(0.0353815 1.89359e-07 0)
(0.0353814 2.04645e-07 0)
(0.0353814 2.14642e-07 0)
(0.0353813 2.19092e-07 0)
(0.0353812 2.1788e-07 0)
(0.0353812 2.1103e-07 0)
(0.0353811 1.98719e-07 0)
(0.0353811 1.8126e-07 0)
(0.035381 1.59105e-07 0)
(0.035381 1.3282e-07 0)
(0.035381 1.03081e-07 0)
(0.035381 7.06629e-08 0)
(0.0353811 3.64013e-08 0)
(0.0353811 1.1962e-09 0)
(0.0353811 -3.40423e-08 0)
(0.0353812 -6.83975e-08 0)
(0.0353813 -1.00963e-07 0)
(0.0353813 -1.30913e-07 0)
(0.0353814 -1.57458e-07 0)
(0.0353815 -1.79923e-07 0)
(0.0353816 -1.97733e-07 0)
(0.0353817 -2.10421e-07 0)
(0.0353817 -2.17667e-07 0)
(0.0353818 -2.19281e-07 0)
(0.0353819 -2.15215e-07 0)
(0.0353819 -2.05585e-07 0)
(0.035382 -1.90615e-07 0)
(0.035382 -1.70716e-07 0)
(0.035382 -1.4634e-07 0)
(0.035382 -1.18258e-07 0)
(0.0369517 -8.23513e-08 0)
(0.0369517 -4.57242e-08 0)
(0.0369517 -7.9136e-09 0)
(0.0369516 3.00767e-08 0)
(0.0369516 6.7262e-08 0)
(0.0369515 1.02677e-07 0)
(0.0369514 1.35428e-07 0)
(0.0369514 1.64672e-07 0)
(0.0369513 1.89649e-07 0)
(0.0369512 2.09727e-07 0)
(0.0369512 2.24378e-07 0)
(0.0369511 2.33227e-07 0)
(0.036951 2.36045e-07 0)
(0.036951 2.32759e-07 0)
(0.0369509 2.2345e-07 0)
(0.0369509 2.08355e-07 0)
(0.0369509 1.87863e-07 0)
(0.0369509 1.62503e-07 0)
(0.0369509 1.32925e-07 0)
(0.0369509 9.98906e-08 0)
(0.0369509 6.42617e-08 0)
(0.0369509 2.69584e-08 0)
(0.036951 -1.10432e-08 0)
(0.036951 -4.87617e-08 0)
(0.0369511 -8.52157e-08 0)
(0.0369512 -1.19445e-07 0)
(0.0369512 -1.50582e-07 0)
(0.0369513 -1.77804e-07 0)
(0.0369514 -2.00419e-07 0)
(0.0369514 -2.17849e-07 0)
(0.0369515 -2.29634e-07 0)
(0.0369516 -2.3548e-07 0)
(0.0369516 -2.35232e-07 0)
(0.0369517 -2.2889e-07 0)
(0.0369517 -2.16629e-07 0)
(0.0369517 -1.98743e-07 0)
(0.0369518 -1.75717e-07 0)
(0.0369518 -1.48087e-07 0)
(0.0369518 -1.16707e-07 0)
(0.0383844 -7.46137e-08 0)
(0.0383844 -3.53665e-08 0)
(0.0383843 4.79063e-09 0)
(0.0383843 4.47997e-08 0)
(0.0383842 8.36243e-08 0)
(0.0383842 1.20259e-07 0)
(0.0383841 1.5378e-07 0)
(0.038384 1.8332e-07 0)
(0.038384 2.08112e-07 0)
(0.0383839 2.27527e-07 0)
(0.0383838 2.41053e-07 0)
(0.0383838 2.48343e-07 0)
(0.0383838 2.49209e-07 0)
(0.0383837 2.43629e-07 0)
(0.0383837 2.31741e-07 0)
(0.0383837 2.13853e-07 0)
(0.0383837 1.90423e-07 0)
(0.0383837 1.62059e-07 0)
(0.0383837 1.29489e-07 0)
(0.0383837 9.35526e-08 0)
(0.0383837 5.51878e-08 0)
(0.0383838 1.53858e-08 0)
(0.0383838 -2.48148e-08 0)
(0.0383839 -6.43761e-08 0)
(0.0383839 -1.02268e-07 0)
(0.038384 -1.37496e-07 0)
(0.0383841 -1.69162e-07 0)
(0.0383841 -1.96435e-07 0)
(0.0383842 -2.18618e-07 0)
(0.0383842 -2.35143e-07 0)
(0.0383843 -2.45576e-07 0)
(0.0383843 -2.49655e-07 0)
(0.0383844 -2.47272e-07 0)
(0.0383844 -2.38483e-07 0)
(0.0383844 -2.23526e-07 0)
(0.0383845 -2.02767e-07 0)
(0.0383845 -1.76763e-07 0)
(0.0383844 -1.46131e-07 0)
(0.0383844 -1.11801e-07 0)
(0.0396987 -6.44489e-08 0)
(0.0396987 -2.32044e-08 0)
(0.0396986 1.86313e-08 0)
(0.0396986 5.99622e-08 0)
(0.0396985 9.97182e-08 0)
(0.0396985 1.36872e-07 0)
(0.0396984 1.70484e-07 0)
(0.0396984 1.99685e-07 0)
(0.0396983 2.23715e-07 0)
(0.0396983 2.41964e-07 0)
(0.0396982 2.53949e-07 0)
(0.0396982 2.59362e-07 0)
(0.0396982 2.58065e-07 0)
(0.0396982 2.50089e-07 0)
(0.0396981 2.35638e-07 0)
(0.0396981 2.15083e-07 0)
(0.0396981 1.88955e-07 0)
(0.0396982 1.57932e-07 0)
(0.0396982 1.22809e-07 0)
(0.0396982 8.44942e-08 0)
(0.0396983 4.39874e-08 0)
(0.0396983 2.33482e-09 0)
(0.0396984 -3.93789e-08 0)
(0.0396984 -8.00762e-08 0)
(0.0396985 -1.18698e-07 0)
(0.0396985 -1.54229e-07 0)
(0.0396986 -1.85768e-07 0)
(0.0396986 -2.12482e-07 0)
(0.0396987 -2.33692e-07 0)
(0.0396987 -2.48853e-07 0)
(0.0396988 -2.57565e-07 0)
(0.0396988 -2.59612e-07 0)
(0.0396988 -2.54939e-07 0)
(0.0396988 -2.43661e-07 0)
(0.0396988 -2.2608e-07 0)
(0.0396988 -2.02632e-07 0)
(0.0396988 -1.73942e-07 0)
(0.0396988 -1.40702e-07 0)
(0.0396988 -1.03907e-07 0)
(0.0409108 -5.25317e-08 0)
(0.0409107 -9.99283e-09 0)
(0.0409107 3.27937e-08 0)
(0.0409106 7.47111e-08 0)
(0.0409106 1.14674e-07 0)
(0.0409105 1.51651e-07 0)
(0.0409105 1.84706e-07 0)
(0.0409104 2.12982e-07 0)
(0.0409104 2.35744e-07 0)
(0.0409104 2.52411e-07 0)
(0.0409103 2.62543e-07 0)
(0.0409103 2.6588e-07 0)
(0.0409103 2.62335e-07 0)
(0.0409103 2.52001e-07 0)
(0.0409103 2.3514e-07 0)
(0.0409103 2.12188e-07 0)
(0.0409103 1.83737e-07 0)
(0.0409104 1.50526e-07 0)
(0.0409104 1.13408e-07 0)
(0.0409104 7.33434e-08 0)
(0.0409105 3.13767e-08 0)
(0.0409105 -1.14086e-08 0)
(0.0409106 -5.38996e-08 0)
(0.0409106 -9.49976e-08 0)
(0.0409107 -1.33633e-07 0)
(0.0409107 -1.68793e-07 0)
(0.0409108 -1.99583e-07 0)
(0.0409108 -2.25192e-07 0)
(0.0409108 -2.44967e-07 0)
(0.0409109 -2.584e-07 0)
(0.0409109 -2.65137e-07 0)
(0.0409109 -2.65012e-07 0)
(0.0409109 -2.58025e-07 0)
(0.0409109 -2.44353e-07 0)
(0.0409109 -2.2436e-07 0)
(0.0409109 -1.98546e-07 0)
(0.0409109 -1.67597e-07 0)
(0.0409108 -1.32268e-07 0)
(0.0409108 -9.36019e-08 0)
(0.0420339 -3.9668e-08 0)
(0.0420339 3.42436e-09 0)
(0.0420338 4.64174e-08 0)
(0.0420338 8.81915e-08 0)
(0.0420337 1.27664e-07 0)
(0.0420337 1.63818e-07 0)
(0.0420337 1.95735e-07 0)
(0.0420336 2.22588e-07 0)
(0.0420336 2.43677e-07 0)
(0.0420336 2.58465e-07 0)
(0.0420336 2.6656e-07 0)
(0.0420336 2.67755e-07 0)
(0.0420336 2.62019e-07 0)
(0.0420336 2.49499e-07 0)
(0.0420336 2.30517e-07 0)
(0.0420337 2.05564e-07 0)
(0.0420337 1.75283e-07 0)
(0.0420337 1.40461e-07 0)
(0.0420338 1.01994e-07 0)
(0.0420338 6.08773e-08 0)
(0.0420338 1.8182e-08 0)
(0.0420339 -2.49897e-08 0)
(0.0420339 -6.75155e-08 0)
(0.042034 -1.08295e-07 0)
(0.042034 -1.46268e-07 0)
(0.0420341 -1.80439e-07 0)
(0.0420341 -2.09938e-07 0)
(0.0420341 -2.33989e-07 0)
(0.0420341 -2.51978e-07 0)
(0.0420341 -2.63443e-07 0)
(0.0420341 -2.68081e-07 0)
(0.0420341 -2.6578e-07 0)
(0.0420341 -2.56596e-07 0)
(0.0420341 -2.40765e-07 0)
(0.0420341 -2.18704e-07 0)
(0.0420341 -1.9097e-07 0)
(0.042034 -1.58299e-07 0)
(0.042034 -1.21496e-07 0)
(0.042034 -8.16327e-08 0)
(0.0430796 -2.67188e-08 0)
(0.0430795 1.61914e-08 0)
(0.0430795 5.86738e-08 0)
(0.0430794 9.96229e-08 0)
(0.0430794 1.37977e-07 0)
(0.0430794 1.72747e-07 0)
(0.0430794 2.03049e-07 0)
(0.0430794 2.28097e-07 0)
(0.0430793 2.47238e-07 0)
(0.0430793 2.59984e-07 0)
(0.0430794 2.65998e-07 0)
(0.0430794 2.65124e-07 0)
(0.0430794 2.57386e-07 0)
(0.0430794 2.42983e-07 0)
(0.0430794 2.22287e-07 0)
(0.0430795 1.95832e-07 0)
(0.0430795 1.64303e-07 0)
(0.0430795 1.28516e-07 0)
(0.0430796 8.93954e-08 0)
(0.0430796 4.79524e-08 0)
(0.0430797 5.26612e-09 0)
(0.0430797 -3.75618e-08 0)
(0.0430798 -7.94181e-08 0)
(0.0430798 -1.1922e-07 0)
(0.0430798 -1.55931e-07 0)
(0.0430798 -1.88592e-07 0)
(0.0430799 -2.16369e-07 0)
(0.0430799 -2.38532e-07 0)
(0.0430799 -2.54517e-07 0)
(0.0430799 -2.6391e-07 0)
(0.0430799 -2.66465e-07 0)
(0.0430798 -2.62121e-07 0)
(0.0430798 -2.50988e-07 0)
(0.0430798 -2.33354e-07 0)
(0.0430798 -2.09682e-07 0)
(0.0430797 -1.80573e-07 0)
(0.0430797 -1.46795e-07 0)
(0.0430796 -1.09193e-07 0)
(0.0430796 -6.88448e-08 0)
(0.0440572 -1.45194e-08 0)
(0.0440572 2.75211e-08 0)
(0.0440572 6.88436e-08 0)
(0.0440571 1.08372e-07 0)
(0.0440571 1.45081e-07 0)
(0.0440571 1.78023e-07 0)
(0.0440571 2.0636e-07 0)
(0.0440571 2.29356e-07 0)
(0.0440571 2.46412e-07 0)
(0.0440571 2.57093e-07 0)
(0.0440571 2.61115e-07 0)
(0.0440572 2.58375e-07 0)
(0.0440572 2.48945e-07 0)
(0.0440572 2.33068e-07 0)
(0.0440573 2.11154e-07 0)
(0.0440573 1.8377e-07 0)
(0.0440573 1.51625e-07 0)
(0.0440574 1.15551e-07 0)
(0.0440574 7.64789e-08 0)
(0.0440575 3.5421e-08 0)
(0.0440575 -6.55552e-09 0)
(0.0440575 -4.83671e-08 0)
(0.0440576 -8.89268e-08 0)
(0.0440576 -1.27185e-07 0)
(0.0440576 -1.62146e-07 0)
(0.0440576 -1.92898e-07 0)
(0.0440576 -2.18653e-07 0)
(0.0440576 -2.38738e-07 0)
(0.0440576 -2.52637e-07 0)
(0.0440576 -2.59994e-07 0)
(0.0440576 -2.60615e-07 0)
(0.0440576 -2.54486e-07 0)
(0.0440575 -2.41768e-07 0)
(0.0440575 -2.22786e-07 0)
(0.0440574 -1.9804e-07 0)
(0.0440574 -1.6816e-07 0)
(0.0440574 -1.33934e-07 0)
(0.0440573 -9.62238e-08 0)
(0.0440573 -5.6099e-08 0)
(0.044975 -3.79936e-09 0)
(0.044975 3.67677e-08 0)
(0.0449749 7.63803e-08 0)
(0.0449749 1.14006e-07 0)
(0.0449749 1.48668e-07 0)
(0.0449749 1.79471e-07 0)
(0.0449749 2.0563e-07 0)
(0.0449749 2.26467e-07 0)
(0.044975 2.41437e-07 0)
(0.044975 2.50159e-07 0)
(0.044975 2.52401e-07 0)
(0.044975 2.48106e-07 0)
(0.0449751 2.37386e-07 0)
(0.0449751 2.20519e-07 0)
(0.0449752 1.97939e-07 0)
(0.0449752 1.70232e-07 0)
(0.0449753 1.38114e-07 0)
(0.0449753 1.02418e-07 0)
(0.0449753 6.4066e-08 0)
(0.0449754 2.40501e-08 0)
(0.0449754 -1.659e-08 0)
(0.0449754 -5.68044e-08 0)
(0.0449754 -9.55481e-08 0)
(0.0449755 -1.31818e-07 0)
(0.0449755 -1.64672e-07 0)
(0.0449755 -1.93251e-07 0)
(0.0449755 -2.16825e-07 0)
(0.0449754 -2.34777e-07 0)
(0.0449754 -2.46647e-07 0)
(0.0449754 -2.52128e-07 0)
(0.0449754 -2.51077e-07 0)
(0.0449753 -2.43525e-07 0)
(0.0449753 -2.29665e-07 0)
(0.0449752 -2.09857e-07 0)
(0.0449752 -1.84618e-07 0)
(0.0449752 -1.54594e-07 0)
(0.0449751 -1.20577e-07 0)
(0.0449751 -8.34294e-08 0)
(0.044975 -4.4191e-08 0)
(0.0458397 4.87897e-09 0)
(0.0458396 4.34785e-08 0)
(0.0458396 8.09527e-08 0)
(0.0458396 1.16323e-07 0)
(0.0458396 1.48671e-07 0)
(0.0458396 1.77161e-07 0)
(0.0458397 2.01065e-07 0)
(0.0458397 2.19763e-07 0)
(0.0458397 2.32768e-07 0)
(0.0458397 2.39748e-07 0)
(0.0458398 2.40517e-07 0)
(0.0458398 2.35056e-07 0)
(0.0458399 2.23507e-07 0)
(0.0458399 2.06171e-07 0)
(0.04584 1.83493e-07 0)
(0.04584 1.56063e-07 0)
(0.04584 1.2459e-07 0)
(0.0458401 8.98893e-08 0)
(0.0458401 5.28579e-08 0)
(0.0458402 1.44538e-08 0)
(0.0458402 -2.43256e-08 0)
(0.0458402 -6.24784e-08 0)
(0.0458402 -9.90132e-08 0)
(0.0458402 -1.32984e-07 0)
(0.0458402 -1.63509e-07 0)
(0.0458402 -1.8979e-07 0)
(0.0458402 -2.11157e-07 0)
(0.0458401 -2.27048e-07 0)
(0.0458401 -2.37058e-07 0)
(0.0458401 -2.40928e-07 0)
(0.04584 -2.38557e-07 0)
(0.04584 -2.30007e-07 0)
(0.0458399 -2.15501e-07 0)
(0.0458399 -1.95412e-07 0)
(0.0458398 -1.70268e-07 0)
(0.0458398 -1.40711e-07 0)
(0.0458398 -1.07522e-07 0)
(0.0458397 -7.15452e-08 0)
(0.0458397 -3.37779e-08 0)
(0.0466571 1.11605e-08 0)
(0.0466571 4.7423e-08 0)
(0.0466571 8.24596e-08 0)
(0.0466571 1.15355e-07 0)
(0.0466571 1.45253e-07 0)
(0.0466571 1.71382e-07 0)
(0.0466571 1.93075e-07 0)
(0.0466571 2.09767e-07 0)
(0.0466572 2.21023e-07 0)
(0.0466572 2.26558e-07 0)
(0.0466573 2.26222e-07 0)
(0.0466573 2.20027e-07 0)
(0.0466574 2.08133e-07 0)
(0.0466574 1.9085e-07 0)
(0.0466575 1.68622e-07 0)
(0.0466575 1.42027e-07 0)
(0.0466575 1.11754e-07 0)
(0.0466576 7.85856e-08 0)
(0.0466576 4.33803e-08 0)
(0.0466576 7.04852e-09 0)
(0.0466576 -2.94666e-08 0)
(0.0466577 -6.52211e-08 0)
(0.0466577 -9.92864e-08 0)
(0.0466576 -1.30781e-07 0)
(0.0466576 -1.58886e-07 0)
(0.0466576 -1.82869e-07 0)
(0.0466576 -2.02116e-07 0)
(0.0466575 -2.16124e-07 0)
(0.0466575 -2.24533e-07 0)
(0.0466575 -2.27128e-07 0)
(0.0466574 -2.23838e-07 0)
(0.0466574 -2.14751e-07 0)
(0.0466573 -2.00103e-07 0)
(0.0466573 -1.80271e-07 0)
(0.0466572 -1.55775e-07 0)
(0.0466572 -1.27244e-07 0)
(0.0466571 -9.54291e-08 0)
(0.0466571 -6.11455e-08 0)
(0.0466571 -2.53307e-08 0)
(0.0474322 1.49086e-08 0)
(0.0474322 4.85913e-08 0)
(0.0474322 8.10187e-08 0)
(0.0474322 1.11343e-07 0)
(0.0474322 1.38774e-07 0)
(0.0474322 1.62605e-07 0)
(0.0474322 1.82224e-07 0)
(0.0474323 1.97124e-07 0)
(0.0474323 2.06915e-07 0)
(0.0474324 2.11348e-07 0)
(0.0474324 2.10305e-07 0)
(0.0474325 2.03815e-07 0)
(0.0474325 1.92045e-07 0)
(0.0474326 1.75302e-07 0)
(0.0474326 1.54019e-07 0)
(0.0474327 1.28747e-07 0)
(0.0474327 1.0014e-07 0)
(0.0474327 6.89409e-08 0)
(0.0474327 3.59545e-08 0)
(0.0474328 2.03462e-09 0)
(0.0474328 -3.19384e-08 0)
(0.0474328 -6.50864e-08 0)
(0.0474328 -9.65484e-08 0)
(0.0474327 -1.2551e-07 0)
(0.0474327 -1.5122e-07 0)
(0.0474327 -1.73007e-07 0)
(0.0474327 -1.90314e-07 0)
(0.0474326 -2.02688e-07 0)
(0.0474326 -2.09813e-07 0)
(0.0474325 -2.11503e-07 0)
(0.0474325 -2.07715e-07 0)
(0.0474324 -1.98547e-07 0)
(0.0474324 -1.84237e-07 0)
(0.0474323 -1.65155e-07 0)
(0.0474323 -1.418e-07 0)
(0.0474322 -1.14772e-07 0)
(0.0474322 -8.47841e-08 0)
(0.0474322 -5.26065e-08 0)
(0.0474322 -1.91087e-08 0)
(0.0481692 1.61927e-08 0)
(0.0481692 4.71722e-08 0)
(0.0481692 7.69328e-08 0)
(0.0481692 1.04696e-07 0)
(0.0481692 1.2974e-07 0)
(0.0481693 1.51416e-07 0)
(0.0481693 1.69171e-07 0)
(0.0481693 1.82543e-07 0)
(0.0481694 1.91184e-07 0)
(0.0481694 1.94874e-07 0)
(0.0481695 1.93514e-07 0)
(0.0481695 1.87141e-07 0)
(0.0481696 1.75921e-07 0)
(0.0481696 1.60146e-07 0)
(0.0481697 1.40223e-07 0)
(0.0481697 1.16669e-07 0)
(0.0481697 9.00939e-08 0)
(0.0481698 6.11863e-08 0)
(0.0481698 3.06934e-08 0)
(0.0481698 -5.96172e-10 0)
(0.0481698 -3.18706e-08 0)
(0.0481698 -6.23211e-08 0)
(0.0481698 -9.11574e-08 0)
(0.0481697 -1.17633e-07 0)
(0.0481697 -1.41061e-07 0)
(0.0481697 -1.60831e-07 0)
(0.0481696 -1.76436e-07 0)
(0.0481696 -1.87469e-07 0)
(0.0481696 -1.93646e-07 0)
(0.0481695 -1.94809e-07 0)
(0.0481695 -1.90925e-07 0)
(0.0481694 -1.82097e-07 0)
(0.0481694 -1.68553e-07 0)
(0.0481693 -1.50643e-07 0)
(0.0481693 -1.28835e-07 0)
(0.0481692 -1.03691e-07 0)
(0.0481692 -7.58734e-08 0)
(0.0481692 -4.60992e-08 0)
(0.0481692 -1.51637e-08 0)
(0.0488718 1.52545e-08 0)
(0.0488718 4.35103e-08 0)
(0.0488718 7.06408e-08 0)
(0.0488718 9.59372e-08 0)
(0.0488719 1.18741e-07 0)
(0.0488719 1.38463e-07 0)
(0.0488719 1.54598e-07 0)
(0.048872 1.66727e-07 0)
(0.048872 1.74535e-07 0)
(0.0488721 1.77822e-07 0)
(0.0488721 1.76501e-07 0)
(0.0488722 1.70609e-07 0)
(0.0488722 1.60297e-07 0)
(0.0488723 1.45835e-07 0)
(0.0488723 1.27596e-07 0)
(0.0488723 1.06053e-07 0)
(0.0488724 8.17647e-08 0)
(0.0488724 5.536e-08 0)
(0.0488724 2.75212e-08 0)
(0.0488724 -1.03171e-09 0)
(0.0488724 -2.95579e-08 0)
(0.0488724 -5.73199e-08 0)
(0.0488724 -8.35972e-08 0)
(0.0488723 -1.0771e-07 0)
(0.0488723 -1.29032e-07 0)
(0.0488723 -1.47009e-07 0)
(0.0488722 -1.61179e-07 0)
(0.0488722 -1.71173e-07 0)
(0.0488721 -1.76734e-07 0)
(0.0488721 -1.77718e-07 0)
(0.048872 -1.74099e-07 0)
(0.048872 -1.65972e-07 0)
(0.0488719 -1.53546e-07 0)
(0.0488719 -1.37142e-07 0)
(0.0488719 -1.17191e-07 0)
(0.0488718 -9.42046e-08 0)
(0.0488718 -6.87901e-08 0)
(0.0488718 -4.16032e-08 0)
(0.0488718 -1.33624e-08 0)
(0.0495431 1.24619e-08 0)
(0.0495432 3.80555e-08 0)
(0.0495432 6.26634e-08 0)
(0.0495432 8.56436e-08 0)
(0.0495432 1.06398e-07 0)
(0.0495433 1.24391e-07 0)
(0.0495433 1.39161e-07 0)
(0.0495434 1.50325e-07 0)
(0.0495434 1.57592e-07 0)
(0.0495435 1.60778e-07 0)
(0.0495435 1.59797e-07 0)
(0.0495436 1.54676e-07 0)
(0.0495436 1.4555e-07 0)
(0.0495436 1.32655e-07 0)
(0.0495437 1.16325e-07 0)
(0.0495437 9.69835e-08 0)
(0.0495437 7.51316e-08 0)
(0.0495437 5.13352e-08 0)
(0.0495437 2.62093e-08 0)
(0.0495437 4.03698e-10 0)
(0.0495437 -2.54123e-08 0)
(0.0495437 -5.05712e-08 0)
(0.0495437 -7.44204e-08 0)
(0.0495436 -9.63427e-08 0)
(0.0495436 -1.1577e-07 0)
(0.0495436 -1.32195e-07 0)
(0.0495435 -1.45198e-07 0)
(0.0495435 -1.54439e-07 0)
(0.0495434 -1.59681e-07 0)
(0.0495434 -1.60789e-07 0)
(0.0495433 -1.57731e-07 0)
(0.0495433 -1.50589e-07 0)
(0.0495433 -1.39547e-07 0)
(0.0495432 -1.2489e-07 0)
(0.0495432 -1.07002e-07 0)
(0.0495432 -8.63436e-08 0)
(0.0495431 -6.3459e-08 0)
(0.0495431 -3.894e-08 0)
(0.0495431 -1.34284e-08 0)
(0.050186 8.25805e-09 0)
(0.050186 3.13095e-08 0)
(0.050186 5.35482e-08 0)
(0.0501861 7.43952e-08 0)
(0.0501861 9.33084e-08 0)
(0.0501861 1.098e-07 0)
(0.0501862 1.23445e-07 0)
(0.0501862 1.33892e-07 0)
(0.0501863 1.40868e-07 0)
(0.0501863 1.44195e-07 0)
(0.0501864 1.43785e-07 0)
(0.0501864 1.39651e-07 0)
(0.0501864 1.319e-07 0)
(0.0501865 1.20735e-07 0)
(0.0501865 1.06443e-07 0)
(0.0501865 8.93957e-08 0)
(0.0501865 7.00348e-08 0)
(0.0501865 4.88615e-08 0)
(0.0501866 2.6423e-08 0)
(0.0501865 3.29962e-09 0)
(0.0501865 -1.99092e-08 0)
(0.0501865 -4.26032e-08 0)
(0.0501865 -6.41941e-08 0)
(0.0501865 -8.41231e-08 0)
(0.0501864 -1.01873e-07 0)
(0.0501864 -1.16983e-07 0)
(0.0501863 -1.29065e-07 0)
(0.0501863 -1.37802e-07 0)
(0.0501862 -1.42972e-07 0)
(0.0501862 -1.4444e-07 0)
(0.0501862 -1.42167e-07 0)
(0.0501861 -1.36213e-07 0)
(0.0501861 -1.26731e-07 0)
(0.050186 -1.13966e-07 0)
(0.050186 -9.82518e-08 0)
(0.050186 -7.99942e-08 0)
(0.050186 -5.96736e-08 0)
(0.050186 -3.78155e-08 0)
(0.050186 -1.4988e-08 0)
(0.0508027 3.11169e-09 0)
(0.0508028 2.37778e-08 0)
(0.0508028 4.38243e-08 0)
(0.0508028 6.27308e-08 0)
(0.0508028 8.00061e-08 0)
(0.0508029 9.52045e-08 0)
(0.0508029 1.07935e-07 0)
(0.050803 1.17869e-07 0)
(0.050803 1.24747e-07 0)
(0.050803 1.28394e-07 0)
(0.0508031 1.28714e-07 0)
(0.0508031 1.257e-07 0)